 Gaussian 16, Revision B.01,
 Gaussian 16:  ES64L-G16RevB.01 20-Dec-2017

 --------------------
 # b3lyp/gen opt freq
 --------------------

 --------------------------
 butanedione, B3LYP/pcseg-2
 --------------------------
 Symbolic Z-matrix:
 Charge =  0 Multiplicity = 1

 SCF Done:  E(RB3LYP) =  -306.605150196     A.U. after   12 cycles
 SCF Done:  E(RB3LYP) =  -306.605275859     A.U. after    8 cycles
 Optimization completed.
    -- Stationary point found.
 Normal termination of Gaussian 16 at Fri Jun 17 17:15:30 2022.

 ------------------------------------------------------------------
 #N Geom=AllCheck Guess=TCheck SCRF=Check GenChk RB3LYP/ChkBas Freq
 ------------------------------------------------------------------

 Structure from the checkpoint file:  "/wrk/irikura/Gau-29558.chk"
 --------------------------
 butanedione, B3LYP/pcseg-2
 --------------------------
 Charge =  0 Multiplicity = 1

                         Standard orientation:
 ---------------------------------------------------------------------
 Center     Atomic      Atomic             Coordinates (Angstroms)
 Number     Number       Type             X           Y           Z
 ---------------------------------------------------------------------
      1          6           0        0.080303    0.772464    0.000000
      2          6           0       -0.080303   -0.772464    0.000000
      3          8           0        1.187999    1.253253    0.000000
      4          8           0       -1.187999   -1.253253    0.000000
      5          6           0       -1.187999    1.578537    0.000000
      6          6           0        1.187999   -1.578537    0.000000
      7          1           0       -0.948814    2.637961    0.000000
      8          1           0       -1.792041    1.323470    0.871802
      9          1           0       -1.792041    1.323470   -0.871802
     10          1           0        0.948814   -2.637961    0.000000
     11          1           0        1.792041   -1.323470    0.871802
     12          1           0        1.792041   -1.323470   -0.871802
 ---------------------------------------------------------------------

 SCF Done:  E(RB3LYP) =  -306.605275859     A.U. after    1 cycles

 The electronic state is 1-AG.
 Alpha  occ. eigenvalues --  -19.14473 -19.14473 -10.28390 -10.28370 -10.18664
 Alpha  occ. eigenvalues --  -10.18664  -1.08337  -1.06825  -0.77216  -0.76261
 Alpha  occ. eigenvalues --   -0.64236  -0.52436  -0.50398  -0.48171  -0.47673
 Alpha  occ. eigenvalues --   -0.44208  -0.43774  -0.43145  -0.39963  -0.38753
 Alpha  occ. eigenvalues --   -0.38257  -0.32807  -0.25674
 Alpha virt. eigenvalues --   -0.09859   0.01127   0.02118   0.03084   0.06605
 Alpha virt. eigenvalues --    0.07224   0.07376   0.09202   0.10118   0.11208
 Alpha virt. eigenvalues --    0.13312   0.16363   0.16953   0.17555   0.20436

 Mulliken charges:
               1
     1  C    0.268089
     2  C    0.268089
     3  O   -0.371930
     4  O   -0.371930
     5  C   -0.054250
     6  C   -0.054250
     7  H    0.062549
     8  H    0.047771
     9  H    0.047771
    10  H    0.062549
    11  H    0.047771
    12  H    0.047771
 Sum of Mulliken charges =  -0.00000

 Dipole moment (field-independent basis, Debye):
    X=              0.0000    Y=              0.0000    Z=              0.0000  Tot=              0.0000
 Quadrupole moment (field-independent basis, Debye-Ang):
   XX=            -39.2527   YY=            -37.2293   ZZ=            -33.9111
   XY=             -7.9048   XZ=             -0.0000   YZ=              0.0000

  Exact polarizability:  62.398  -1.117  57.901  -0.000  -0.000  38.545
 Approx polarizability:  97.658  10.998  73.067  -0.000   0.000  57.202

                      1                      2                      3
                     AU                     BG                     AU
 Frequencies --     41.9701               109.5215               110.6159
 Red. masses --      3.6314                 1.0646                 1.0737
 Frc consts  --      0.0038                 0.0075                 0.0077
 IR Inten    --     12.1416                 0.0000                 0.0828

                      4                      5                      6
                     BU                     AU                     AG
 Frequencies --    239.8179               350.1333               361.8076
 Red. masses --      3.6038                 3.4145                 3.4163
 Frc consts  --      0.1221                 0.2466                 0.2635
 IR Inten    --     16.5508                 6.6654                 0.0000

                      7                      8                      9
                     AG                     BU                     BG
 Frequencies --    518.6628               546.8789               620.2278
 Red. masses --      6.2635                 3.3228                 2.0820
 Frc consts  --      0.9927                 0.5855                 0.4719
 IR Inten    --      0.0000                41.3474                 0.0000

                     10                     11                     12
                     AG                     BU                     AU
 Frequencies --    682.2382               908.0904               958.6348
 Red. masses --      3.5562                 2.4162                 1.4409
 Frc consts  --      0.9752                 1.1739                 0.7802
 IR Inten    --      0.0000                29.9218                 4.9385

                     13                     14                     15
                     AG                     BG                     BU
 Frequencies --   1013.3618              1071.3312              1134.2717
 Red. masses --      1.7777                 2.1398                 2.2098
 Frc consts  --      1.0755                 1.4470                 1.6751
 IR Inten    --      0.0000                 0.0000                80.5384

                     16                     17                     18
                     AG                     BU                     AG
 Frequencies --   1272.7540              1386.9784              1392.6070
 Red. masses --      3.6510                 1.2652                 1.3718
 Frc consts  --      3.4846                 1.4340                 1.5675
 IR Inten    --      0.0000                65.6796                 0.0000

                     19                     20                     21
                     AG                     BU                     AU
 Frequencies --   1456.0264              1457.2600              1457.7848
 Red. masses --      1.0590                 1.0521                 1.0485
 Frc consts  --      1.3228                 1.3163                 1.3128
 IR Inten    --      0.0000                30.7827                20.8355

                     22                     23                     24
                     BG                     AG                     BU
 Frequencies --   1462.9712              1780.7302              1782.7471
 Red. masses --      1.0483                10.6178                11.9439
 Frc consts  --      1.3220                19.8372                22.3654
 IR Inten    --      0.0000                 0.0000               272.3852

                     25                     26                     27
                     BU                     AG                     AU
 Frequencies --   3047.3334              3047.4105              3102.1161
 Red. masses --      1.0356                 1.0357                 1.0973
 Frc consts  --      5.6660                 5.6670                 6.2215
 IR Inten    --      0.3868                 0.0000                 4.2555

                     28                     29                     30
                     BG                     AG                     BU
 Frequencies --   3102.3867              3153.6231              3154.2218
 Red. masses --      1.0975                 1.1044                 1.1044
 Frc consts  --      6.2235                 6.4715                 6.4736
 IR Inten    --      0.0000                 0.0000                12.4015

 - Thermochemistry -
 -------------------
 Temperature   298.150 Kelvin.  Pressure   1.00000 Atm.
 Atom     1 has atomic number  6 and mass  12.00000

 Molecular mass:    86.03678 amu.
 Principal axes and moments of inertia in atomic units:
                           1         2         3
     Eigenvalues --   339.05098 537.71670 854.88459
           X           -0.19226   0.98134   0.00000
           Y            0.98134   0.19226   0.00000
           Z            0.00000  -0.00000   1.00000
 This molecule is an asymmetric top.
 Rotational symmetry number  2.
 Rotational temperatures (Kelvin)      0.25546     0.16108     0.10132
 Rotational constants (GHZ):           5.32292     3.35630     2.11109
 Zero-point vibrational energy     243586.7 (Joules/Mol)
                                   58.21862 (Kcal/Mol)
 Warning -- explicit consideration of   9 degrees of freedom as
           vibrations may cause significant error
 Vibrational temperatures:     60.39   157.58   159.15   345.04   503.76
          (Kelvin)            520.56   746.24   786.84   892.37   981.59
                             1306.54  1379.26  1458.00  1541.41  1631.96
                             1831.21  1995.55  2003.65  2094.90  2096.67
                             2097.43  2104.89  2562.07  2564.98  4384.43
                             4384.54  4463.25  4463.64  4537.36  4538.22

 Zero-point correction=                           0.092777 (Hartree/Particle)
 Thermal correction to Energy=                    0.100009
 Thermal correction to Enthalpy=                  0.100953
 Thermal correction to Gibbs Free Energy=         0.061651
 Sum of electronic and zero-point Energies=           -306.512499
 Sum of electronic and thermal Energies=              -306.505267
 Sum of electronic and thermal Enthalpies=            -306.504322
 Sum of electronic and thermal Free Energies=         -306.543625

                     E (Thermal)             CV                S
                      KCal/Mol        Cal/Mol-Kelvin    Cal/Mol-Kelvin
 Total                   62.757             23.554             82.720
 Electronic               0.000              0.000              0.000
 Translational            0.889              2.981             39.270
 Rotational               0.889              2.981             25.169
 Vibrational             60.979             17.592             18.281
 Vibration     1          0.595              1.980              5.164
 Vibration     2          0.606              1.942              3.277
 Vibration     3          0.606              1.941              3.258
 Vibration     4          0.657              1.780              1.804
 Vibration     5          0.727              1.575              1.166
 Vibration     6          0.736              1.551              1.114
 Vibration     7          0.874              1.209              0.613
 Vibration     8          0.902              1.147              0.551
 Vibration     9          0.980              0.989              0.416

 Optimization completed.
    -- Stationary point found.
 Normal termination of Gaussian 16 at Fri Jun 17 17:16:53 2022.
