 Gaussian 16, Revision B.01,

 ---------------------------------------
 # b3lyp/gen opt freq CPHF(Grid=OneStep)
 ---------------------------------------

 --------------------------
 butanedione, B3LYP/pcseg-2
 --------------------------
 Symbolic Z-matrix:
 Charge =  0 Multiplicity = 1

 SCF Done:  E(RB3LYP) =  -306.605275860     A.U. after   12 cycles
 Optimization completed.
    -- Stationary point found.
 Normal termination of Gaussian 16 at Fri Sep 29 14:59:02 2023.

 ------------------------------------------------------------------
 #N Geom=AllCheck Guess=TCheck SCRF=Check GenChk RB3LYP/ChkBas Freq
 ------------------------------------------------------------------

 Structure from the checkpoint file:  "Ac2.chk"
 --------------------------
 butanedione, B3LYP/pcseg-2
 --------------------------
 Charge =  0 Multiplicity = 1

 SCF Done:  E(RB3LYP) =  -306.605275860     A.U. after    1 cycles

  Exact polarizability:  62.398  -1.116  57.901  -0.000  -0.000  38.545
 Approx polarizability:  97.658  10.998  73.067   0.000   0.000  57.202

                      1                      2                      3
                     AU                     BG                     AU
 Frequencies --     41.9674               109.5139               110.6086
 Red. masses --      3.6313                 1.0646                 1.0737
 Frc consts  --      0.0038                 0.0075                 0.0077
 IR Inten    --     12.1415                 0.0000                 0.0829

                      4                      5                      6
                     BU                     AU                     AG
 Frequencies --    239.8158               350.1331               361.8054
 Red. masses --      3.6039                 3.4145                 3.4162
 Frc consts  --      0.1221                 0.2466                 0.2635
 IR Inten    --     16.5511                 6.6655                 0.0000

                      7                      8                      9
                     AG                     BU                     BG
 Frequencies --    518.6596               546.8746               620.2267
 Red. masses --      6.2633                 3.3226                 2.0820
 Frc consts  --      0.9927                 0.5855                 0.4719
 IR Inten    --      0.0000                41.3445                 0.0000

                     10                     11                     12
                     AG                     BU                     AU
 Frequencies --    682.2377               908.0680               958.6318
 Red. masses --      3.5562                 2.4161                 1.4409
 Frc consts  --      0.9752                 1.1738                 0.7802
 IR Inten    --      0.0000                29.9034                 4.9381

                     13                     14                     15
                     AG                     BG                     BU
 Frequencies --   1013.3383              1071.3307              1134.2684
 Red. masses --      1.7777                 2.1398                 2.2099
 Frc consts  --      1.0755                 1.4470                 1.6752
 IR Inten    --      0.0000                 0.0000                80.5566

                     16                     17                     18
                     AG                     BU                     AG
 Frequencies --   1272.7505              1386.9809              1392.6095
 Red. masses --      3.6510                 1.2652                 1.3718
 Frc consts  --      3.4846                 1.4340                 1.5675
 IR Inten    --      0.0000                65.6736                 0.0000

                     19                     20                     21
                     AG                     BU                     AU
 Frequencies --   1456.0258              1457.2603              1457.7916
 Red. masses --      1.0590                 1.0521                 1.0485
 Frc consts  --      1.3228                 1.3163                 1.3128
 IR Inten    --      0.0000                30.7863                20.8378

                     22                     23                     24
                     BG                     AG                     BU
 Frequencies --   1462.9787              1780.7322              1782.7524
 Red. masses --      1.0483                10.6176                11.9437
 Frc consts  --      1.3220                19.8369                22.3650
 IR Inten    --      0.0000                 0.0000               272.3926

                     25                     26                     27
                     BU                     AG                     AU
 Frequencies --   3047.3364              3047.4134              3102.1277
 Red. masses --      1.0356                 1.0357                 1.0973
 Frc consts  --      5.6660                 5.6670                 6.2215
 IR Inten    --      0.3869                 0.0000                 4.2533

                     28                     29                     30
                     BG                     AG                     BU
 Frequencies --   3102.3983              3153.6275              3154.2264
 Red. masses --      1.0975                 1.1044                 1.1044
 Frc consts  --      6.2235                 6.4715                 6.4736
 IR Inten    --      0.0000                 0.0000                12.4018

 - Thermochemistry -
 -------------------
 Temperature   298.150 Kelvin.  Pressure   1.00000 Atm.
 Atom     1 has atomic number  6 and mass  12.00000

 Molecular mass:    86.03678 amu.
 Principal axes and moments of inertia in atomic units:
                           1         2         3
     Eigenvalues --   339.05093 537.71688 854.88472
           X           -0.19226   0.98134   0.00000
           Y            0.98134   0.19226   0.00000
           Z           -0.00000   0.00000   1.00000
 This molecule is an asymmetric top.
 Rotational symmetry number  2.
 Rotational temperatures (Kelvin)      0.25546     0.16108     0.10132
 Rotational constants (GHZ):           5.32292     3.35630     2.11109
 Zero-point vibrational energy     243586.6 (Joules/Mol)
                                   58.21858 (Kcal/Mol)
 Warning -- explicit consideration of   9 degrees of freedom as
           vibrations may cause significant error
 Vibrational temperatures:     60.38   157.57   159.14   345.04   503.76
          (Kelvin)            520.56   746.24   786.83   892.37   981.59
                             1306.51  1379.26  1457.97  1541.41  1631.96
                             1831.20  1995.56  2003.65  2094.90  2096.67
                             2097.44  2104.90  2562.08  2564.98  4384.44
                             4384.55  4463.27  4463.66  4537.37  4538.23

 Zero-point correction=                           0.092777 (Hartree/Particle)
 Thermal correction to Energy=                    0.100009
 Thermal correction to Enthalpy=                  0.100953
 Thermal correction to Gibbs Free Energy=         0.061650
 Sum of electronic and zero-point Energies=           -306.512499
 Sum of electronic and thermal Energies=              -306.505267
 Sum of electronic and thermal Enthalpies=            -306.504322
 Sum of electronic and thermal Free Energies=         -306.543626

                     E (Thermal)             CV                S
                      KCal/Mol        Cal/Mol-Kelvin    Cal/Mol-Kelvin
 Total                   62.757             23.554             82.720
 Electronic               0.000              0.000              0.000
 Translational            0.889              2.981             39.270
 Rotational               0.889              2.981             25.169
 Vibrational             60.979             17.593             18.282
 Vibration     1          0.595              1.980              5.164
 Vibration     2          0.606              1.942              3.278
 Vibration     3          0.606              1.941              3.258
 Vibration     4          0.657              1.780              1.804
 Vibration     5          0.727              1.575              1.166
 Vibration     6          0.736              1.551              1.114
 Vibration     7          0.874              1.209              0.613
 Vibration     8          0.902              1.147              0.551
 Vibration     9          0.980              0.989              0.416

 Optimization completed.
    -- Stationary point found.
 Normal termination of Gaussian 16 at Fri Sep 29 15:05:46 2023.
 Gaussian 16:  ES64L-G16RevB.01 20-Dec-2017

 ---------------------------------
 # rohf/gen geom=check guess=check
 ---------------------------------

 -----------------------------
 butanedione, ROHF/cc-pVTZ-F12
 -----------------------------
 Structure from the checkpoint file:  "Ac2.chk"
 Charge =  0 Multiplicity = 1

                         Standard orientation:
 ---------------------------------------------------------------------
 Center     Atomic      Atomic             Coordinates (Angstroms)
 Number     Number       Type             X           Y           Z
 ---------------------------------------------------------------------
      1          6           0        0.080303    0.772464    0.000000
      2          6           0       -0.080303   -0.772464    0.000000
      3          8           0        1.187999    1.253253    0.000000
      4          8           0       -1.187999   -1.253253    0.000000
      5          6           0       -1.187999    1.578537    0.000000
      6          6           0        1.187999   -1.578537    0.000000
      7          1           0       -0.948814    2.637961    0.000000
      8          1           0       -1.792041    1.323470    0.871802
      9          1           0       -1.792041    1.323470   -0.871802
     10          1           0        0.948814   -2.637961    0.000000
     11          1           0        1.792041   -1.323470    0.871802
     12          1           0        1.792041   -1.323470   -0.871802
 ---------------------------------------------------------------------

 SCF Done:  E(ROHF) =  -304.820658859     A.U. after   11 cycles

 The electronic state is 1-AG.
 Alpha  occ. eigenvalues --  -20.57758 -20.57758 -11.35239 -11.35183 -11.24118
 Alpha  occ. eigenvalues --  -11.24118  -1.42764  -1.40933  -1.03661  -1.02242
 Alpha  occ. eigenvalues --   -0.87047  -0.72977  -0.69946  -0.66538  -0.63363
 Alpha  occ. eigenvalues --   -0.61583  -0.59316  -0.58823  -0.55365  -0.52309
 Alpha  occ. eigenvalues --   -0.51161  -0.50779  -0.40932
 Alpha virt. eigenvalues --    0.04260   0.04739   0.06250   0.06454   0.06729
 Alpha virt. eigenvalues --    0.07221   0.08330   0.08403   0.09796   0.09858
 Alpha virt. eigenvalues --    0.10715   0.11865   0.12318   0.15588   0.16246

 Mulliken charges and spin densities:
               1          2
     1  C    0.556664   0.000000
     2  C    0.556664   0.000000
     3  O   -0.584852   0.000000
     4  O   -0.584852   0.000000
     5  C   -0.365831   0.000000
     6  C   -0.365831   0.000000
     7  H    0.145588   0.000000
     8  H    0.124216   0.000000
     9  H    0.124216   0.000000
    10  H    0.145588   0.000000
    11  H    0.124216   0.000000
    12  H    0.124216   0.000000
 Sum of Mulliken charges =  -0.00000   0.00000

 Dipole moment (field-independent basis, Debye):
    X=              0.0000    Y=              0.0000    Z=              0.0000  Tot=              0.0000
 Quadrupole moment (field-independent basis, Debye-Ang):
   XX=            -39.4247   YY=            -37.2054   ZZ=            -33.8828
   XY=             -8.5713   XZ=             -0.0000   YZ=              0.0000

 Normal termination of Gaussian 16 at Fri Sep 29 15:07:57 2023.
