 Gaussian 16, Revision B.01,

 ---------------------------------------
 # b3lyp/gen opt freq CPHF(Grid=OneStep)
 ---------------------------------------

 ----------------------------------
 methyl vinyl ketone, B3LYP/pcseg-2
 ----------------------------------
 Symbolic Z-matrix:
 Charge =  0 Multiplicity = 1

 SCF Done:  E(RB3LYP) =  -231.334008104     A.U. after   13 cycles
 Optimization completed.
    -- Stationary point found.
 Normal termination of Gaussian 16 at Sat Sep 30 20:56:02 2023.

 ------------------------------------------------------------------
 #N Geom=AllCheck Guess=TCheck SCRF=Check GenChk RB3LYP/ChkBas Freq
 ------------------------------------------------------------------

 Structure from the checkpoint file:  "AcC2H3.chk"
 ----------------------------------
 methyl vinyl ketone, B3LYP/pcseg-2
 ----------------------------------
 Charge =  0 Multiplicity = 1

 SCF Done:  E(RB3LYP) =  -231.334008104     A.U. after    1 cycles

  Exact polarizability:  51.171   1.001  69.954   0.000   0.000  34.709
 Approx polarizability:  66.956  11.630 112.694   0.000   0.000  50.755

                      1                      2                      3
                     A"                     A"                     A'
 Frequencies --    103.5368               121.0115               278.2952
 Red. masses --      1.1347                 2.1260                 2.7189
 Frc consts  --      0.0072                 0.0183                 0.1241
 IR Inten    --      0.6080                 1.3417                 2.9064

                      4                      5                      6
                     A"                     A'                     A'
 Frequencies --    431.8647               492.1138               538.1549
 Red. masses --      1.5879                 2.5409                 4.9434
 Frc consts  --      0.1745                 0.3626                 0.8435
 IR Inten    --      0.3557                 9.0691                 5.5709

                      7                      8                      9
                     A"                     A'                     A'
 Frequencies --    696.4115               759.4085               945.0160
 Red. masses --      1.6190                 3.4420                 1.5078
 Frc consts  --      0.4626                 1.1695                 0.7934
 IR Inten    --      6.7274                 2.6153                20.7844

                     10                     11                     12
                     A"                     A"                     A"
 Frequencies --    996.9864              1042.7610              1049.4544
 Red. masses --      1.3196                 1.1166                 1.9383
 Frc consts  --      0.7728                 0.7154                 1.2577
 IR Inten    --     42.7451                12.4867                 5.3114

                     13                     14                     15
                     A'                     A'                     A'
 Frequencies --   1074.7087              1269.5655              1311.6661
 Red. masses --      1.4954                 2.7179                 1.3824
 Frc consts  --      1.0176                 2.5810                 1.4012
 IR Inten    --      3.0657                84.7087                 1.9664

                     16                     17                     18
                     A'                     A'                     A'
 Frequencies --   1388.1301              1448.0157              1472.7823
 Red. masses --      1.3399                 1.1982                 1.0830
 Frc consts  --      1.5211                 1.4803                 1.3841
 IR Inten    --     37.4088                27.8396                 3.2361

                     19                     20                     21
                     A"                     A'                     A'
 Frequencies --   1478.1800              1681.6742              1744.3979
 Red. masses --      1.0474                 4.2101                 9.8341
 Frc consts  --      1.3484                 7.0149                17.6310
 IR Inten    --     10.4752                 4.5983               206.5479

                     22                     23                     24
                     A'                     A"                     A'
 Frequencies --   3041.4918              3098.2340              3147.5906
 Red. masses --      1.0370                 1.0992                 1.0683
 Frc consts  --      5.6521                 6.2169                 6.2362
 IR Inten    --      3.1032                 6.7183                 2.3701

                     25                     26                     27
                     A'                     A'                     A'
 Frequencies --   3148.5473              3168.8427              3229.5669
 Red. masses --      1.0906                 1.0932                 1.1154
 Frc consts  --      6.3702                 6.4675                 6.8544
 IR Inten    --      9.4793                 2.5226                 6.8223

 - Thermochemistry -
 -------------------
 Temperature   298.150 Kelvin.  Pressure   1.00000 Atm.
 Atom     1 has atomic number  6 and mass  12.00000

 Molecular mass:    70.04186 amu.
 Principal axes and moments of inertia in atomic units:
                           1         2         3
     Eigenvalues --   201.12851 421.95387 611.94493
           X           -0.26546   0.96412   0.00000
           Y            0.96412   0.26546   0.00000
           Z           -0.00000   0.00000   1.00000
 This molecule is an asymmetric top.
 Rotational symmetry number  1.
 Rotational temperatures (Kelvin)      0.43064     0.20527     0.14154
 Rotational constants (GHZ):           8.97308     4.27711     2.94919
 Zero-point vibrational energy     234219.3 (Joules/Mol)
                                   55.97976 (Kcal/Mol)
 Warning -- explicit consideration of   6 degrees of freedom as
           vibrations may cause significant error
 Vibrational temperatures:    148.97   174.11   400.40   621.36   708.04
          (Kelvin)            774.28  1001.98  1092.62  1359.67  1434.44
                             1500.30  1509.93  1546.27  1826.62  1887.19
                             1997.21  2083.37  2119.01  2126.77  2419.55
                             2509.80  4376.03  4457.67  4528.68  4530.06
                             4559.26  4646.63

 Zero-point correction=                           0.089209 (Hartree/Particle)
 Thermal correction to Energy=                    0.095049
 Thermal correction to Enthalpy=                  0.095993
 Thermal correction to Gibbs Free Energy=         0.060196
 Sum of electronic and zero-point Energies=           -231.244799
 Sum of electronic and thermal Energies=              -231.238959
 Sum of electronic and thermal Enthalpies=            -231.238015
 Sum of electronic and thermal Free Energies=         -231.273812

                     E (Thermal)             CV                S
                      KCal/Mol        Cal/Mol-Kelvin    Cal/Mol-Kelvin
 Total                   59.644             19.467             75.342
 Electronic               0.000              0.000              0.000
 Translational            0.889              2.981             38.657
 Rotational               0.889              2.981             25.455
 Vibrational             57.867             13.505             11.230
 Vibration     1          0.605              1.946              3.387
 Vibration     2          0.609              1.932              3.084
 Vibration     3          0.679              1.714              1.544
 Vibration     4          0.793              1.401              0.853
 Vibration     5          0.848              1.268              0.678
 Vibration     6          0.893              1.166              0.569

 Optimization completed.
    -- Stationary point found.
 Normal termination of Gaussian 16 at Sat Sep 30 21:03:41 2023.
 Gaussian 16:  ES64L-G16RevB.01 20-Dec-2017

 ---------------------------------
 # rohf/gen geom=check guess=check
 ---------------------------------

 -------------------------------------
 methyl vinyl ketone, ROHF/cc-pVTZ-F12
 -------------------------------------
 Structure from the checkpoint file:  "AcC2H3.chk"
 Charge =  0 Multiplicity = 1

                         Standard orientation:
 ---------------------------------------------------------------------
 Center     Atomic      Atomic             Coordinates (Angstroms)
 Number     Number       Type             X           Y           Z
 ---------------------------------------------------------------------
      1          6           0        0.000000    0.575006    0.000000
      2          8           0        0.496810    1.683527    0.000000
      3          6           0       -1.502716    0.388294    0.000000
      4          6           0        0.883784   -0.620293    0.000000
      5          6           0        0.471156   -1.885048    0.000000
      6          1           0        1.940052   -0.378982    0.000000
      7          1           0        1.175459   -2.705868    0.000000
      8          1           0       -0.577384   -2.151068    0.000000
      9          1           0       -1.979328    1.364179    0.000000
     10          1           0       -1.823313   -0.172116    0.879572
     11          1           0       -1.823313   -0.172116   -0.879572
 ---------------------------------------------------------------------

 SCF Done:  E(ROHF) =  -229.905647685     A.U. after   12 cycles

 The electronic state is 1-A'.
 Alpha  occ. eigenvalues --  -20.54555 -11.33398 -11.26001 -11.24901 -11.23502
 Alpha  occ. eigenvalues --   -1.38763  -1.08611  -0.99995  -0.86420  -0.73516
 Alpha  occ. eigenvalues --   -0.67400  -0.65560  -0.60565  -0.59537  -0.56437
 Alpha  occ. eigenvalues --   -0.53928  -0.50925  -0.42199  -0.39682
 Alpha virt. eigenvalues --    0.03999   0.04753   0.06069   0.06165   0.07883
 Alpha virt. eigenvalues --    0.08213   0.08262   0.09802   0.10574   0.11284
 Alpha virt. eigenvalues --    0.11594   0.12102   0.12744   0.12884   0.17860

 Mulliken charges and spin densities:
               1          2
     1  C    0.632104   0.000000
     2  O   -0.638929   0.000000
     3  C   -0.387989   0.000000
     4  C   -0.215292   0.000000
     5  C   -0.300035   0.000000
     6  H    0.200221   0.000000
     7  H    0.168842   0.000000
     8  H    0.155051   0.000000
     9  H    0.152213   0.000000
    10  H    0.116907   0.000000
    11  H    0.116907   0.000000
 Sum of Mulliken charges =  -0.00000   0.00000

 Dipole moment (field-independent basis, Debye):
    X=             -1.4313    Y=             -3.4632    Z=              0.0000  Tot=              3.7473
 Quadrupole moment (field-independent basis, Debye-Ang):
   XX=            -28.2827   YY=            -33.7638   ZZ=            -31.6799
   XY=             -2.7618   XZ=              0.0000   YZ=             -0.0000

 Normal termination of Gaussian 16 at Sat Sep 30 21:06:51 2023.
