 Gaussian 16, Revision B.01,
 Gaussian 16:  ES64L-G16RevB.01 20-Dec-2017

 --------------------
 # b3lyp/gen opt freq
 --------------------

 ----------------------------------
 methyl vinyl ketone, B3LYP/pcseg-2
 ----------------------------------
 Symbolic Z-matrix:
 Charge =  0 Multiplicity = 1

 SCF Done:  E(RB3LYP) =  -231.333914919     A.U. after   13 cycles
 SCF Done:  E(RB3LYP) =  -231.334006386     A.U. after    8 cycles
 SCF Done:  E(RB3LYP) =  -231.334008104     A.U. after    7 cycles
 Optimization completed.
    -- Stationary point found.
 Normal termination of Gaussian 16 at Tue Jun 21 10:08:46 2022.

 ------------------------------------------------------------------
 #N Geom=AllCheck Guess=TCheck SCRF=Check GenChk RB3LYP/ChkBas Freq
 ------------------------------------------------------------------

 Structure from the checkpoint file:  "/wrk/irikura/Gau-23116.chk"
 ----------------------------------
 methyl vinyl ketone, B3LYP/pcseg-2
 ----------------------------------
 Charge =  0 Multiplicity = 1

                         Standard orientation:
 ---------------------------------------------------------------------
 Center     Atomic      Atomic             Coordinates (Angstroms)
 Number     Number       Type             X           Y           Z
 ---------------------------------------------------------------------
      1          6           0        0.000000    0.575006    0.000000
      2          8           0        0.496810    1.683527    0.000000
      3          6           0       -1.502716    0.388294    0.000000
      4          6           0        0.883784   -0.620293    0.000000
      5          6           0        0.471157   -1.885048    0.000000
      6          1           0        1.940052   -0.378982    0.000000
      7          1           0        1.175460   -2.705868    0.000000
      8          1           0       -0.577383   -2.151068    0.000000
      9          1           0       -1.979328    1.364179    0.000000
     10          1           0       -1.823313   -0.172116    0.879572
     11          1           0       -1.823313   -0.172116   -0.879572
 ---------------------------------------------------------------------

 SCF Done:  E(RB3LYP) =  -231.334008104     A.U. after    1 cycles

 The electronic state is 1-A'.
 Alpha  occ. eigenvalues --  -19.11699 -10.26817 -10.20117 -10.19418 -10.18030
 Alpha  occ. eigenvalues --   -1.04910  -0.80993  -0.74260  -0.64010  -0.54070
 Alpha  occ. eigenvalues --   -0.48978  -0.47784  -0.45387  -0.42683  -0.40787
 Alpha  occ. eigenvalues --   -0.38533  -0.37665  -0.30098  -0.26290
 Alpha virt. eigenvalues --   -0.07295   0.01134   0.03316   0.03935   0.05097
 Alpha virt. eigenvalues --    0.07202   0.07715   0.09464   0.10620   0.14140
 Alpha virt. eigenvalues --    0.16790   0.17089   0.17748   0.18048   0.21661

 Mulliken charges:
               1
     1  C    0.315610
     2  O   -0.400695
     3  C   -0.095779
     4  C   -0.077821
     5  C   -0.064172
     6  H    0.057665
     7  H    0.061743
     8  H    0.057127
     9  H    0.068499
    10  H    0.038912
    11  H    0.038912
 Sum of Mulliken charges =  -0.00000

 Dipole moment (field-independent basis, Debye):
    X=             -1.2529    Y=             -3.1260    Z=             -0.0000  Tot=              3.3677
 Quadrupole moment (field-independent basis, Debye-Ang):
   XX=            -28.5819   YY=            -33.7530   ZZ=            -31.4596
   XY=             -2.5829   XZ=              0.0000   YZ=              0.0000

  Exact polarizability:  51.170   1.002  69.954   0.000   0.000  34.707
 Approx polarizability:  66.956  11.630 112.694   0.000  -0.000  50.755

                      1                      2                      3
                     A"                     A"                     A'
 Frequencies --    103.5372               121.0212               278.2958
 Red. masses --      1.1343                 2.1277                 2.7189
 Frc consts  --      0.0072                 0.0184                 0.1241
 IR Inten    --      0.6067                 1.3436                 2.9063

                      4                      5                      6
                     A"                     A'                     A'
 Frequencies --    431.8787               492.1202               538.1559
 Red. masses --      1.5879                 2.5410                 4.9434
 Frc consts  --      0.1745                 0.3626                 0.8435
 IR Inten    --      0.3561                 9.0706                 5.5707

                      7                      8                      9
                     A"                     A'                     A'
 Frequencies --    696.4119               759.4085               945.0299
 Red. masses --      1.6190                 3.4420                 1.5078
 Frc consts  --      0.4626                 1.1695                 0.7934
 IR Inten    --      6.7277                 2.6149                20.7943

                     10                     11                     12
                     A"                     A"                     A"
 Frequencies --    996.9864              1042.7626              1049.4545
 Red. masses --      1.3196                 1.1166                 1.9383
 Frc consts  --      0.7728                 0.7154                 1.2577
 IR Inten    --     42.7433                12.4860                 5.3103

                     13                     14                     15
                     A'                     A'                     A'
 Frequencies --   1074.7101              1269.5685              1311.6686
 Red. masses --      1.4954                 2.7179                 1.3824
 Frc consts  --      1.0176                 2.5810                 1.4013
 IR Inten    --      3.0640                84.7160                 1.9675

                     16                     17                     18
                     A'                     A'                     A'
 Frequencies --   1388.1309              1448.0214              1472.7964
 Red. masses --      1.3398                 1.1983                 1.0830
 Frc consts  --      1.5211                 1.4804                 1.3840
 IR Inten    --     37.4039                27.8261                 3.2436

                     19                     20                     21
                     A"                     A'                     A'
 Frequencies --   1478.1867              1681.6816              1744.3957
 Red. masses --      1.0474                 4.2102                 9.8341
 Frc consts  --      1.3484                 7.0153                17.6309
 IR Inten    --     10.4730                 4.5996               206.5390

                     22                     23                     24
                     A'                     A"                     A'
 Frequencies --   3041.5067              3098.2424              3147.5924
 Red. masses --      1.0370                 1.0992                 1.0682
 Frc consts  --      5.6522                 6.2169                 6.2351
 IR Inten    --      3.1048                 6.7209                 2.3762

                     25                     26                     27
                     A'                     A'                     A'
 Frequencies --   3148.5501              3168.8362              3229.5646
 Red. masses --      1.0908                 1.0932                 1.1154
 Frc consts  --      6.3713                 6.4675                 6.8544
 IR Inten    --      9.4678                 2.5239                 6.8190

 - Thermochemistry -
 -------------------
 Temperature   298.150 Kelvin.  Pressure   1.00000 Atm.
 Atom     1 has atomic number  6 and mass  12.00000

 Molecular mass:    70.04186 amu.
 Principal axes and moments of inertia in atomic units:
                           1         2         3
     Eigenvalues --   201.12853 421.95392 611.94500
           X           -0.26546   0.96412   0.00000
           Y            0.96412   0.26546   0.00000
           Z           -0.00000   0.00000   1.00000
 This molecule is an asymmetric top.
 Rotational symmetry number  1.
 Rotational temperatures (Kelvin)      0.43064     0.20527     0.14154
 Rotational constants (GHZ):           8.97307     4.27710     2.94919
 Zero-point vibrational energy     234219.9 (Joules/Mol)
                                   55.97991 (Kcal/Mol)
 Warning -- explicit consideration of   6 degrees of freedom as
           vibrations may cause significant error
 Vibrational temperatures:    148.97   174.12   400.41   621.38   708.05
          (Kelvin)            774.29  1001.98  1092.62  1359.69  1434.44
                             1500.30  1509.93  1546.27  1826.63  1887.20
                             1997.21  2083.38  2119.03  2126.78  2419.56
                             2509.80  4376.05  4457.68  4528.68  4530.06
                             4559.25  4646.62

 Zero-point correction=                           0.089210 (Hartree/Particle)
 Thermal correction to Energy=                    0.095049
 Thermal correction to Enthalpy=                  0.095994
 Thermal correction to Gibbs Free Energy=         0.060197
 Sum of electronic and zero-point Energies=           -231.244798
 Sum of electronic and thermal Energies=              -231.238959
 Sum of electronic and thermal Enthalpies=            -231.238015
 Sum of electronic and thermal Free Energies=         -231.273812

                     E (Thermal)             CV                S
                      KCal/Mol        Cal/Mol-Kelvin    Cal/Mol-Kelvin
 Total                   59.644             19.467             75.341
 Electronic               0.000              0.000              0.000
 Translational            0.889              2.981             38.657
 Rotational               0.889              2.981             25.455
 Vibrational             57.867             13.505             11.230
 Vibration     1          0.605              1.946              3.387
 Vibration     2          0.609              1.932              3.084
 Vibration     3          0.679              1.714              1.544
 Vibration     4          0.793              1.401              0.853
 Vibration     5          0.848              1.268              0.678
 Vibration     6          0.893              1.166              0.569

 Optimization completed.
    -- Stationary point found.
 Normal termination of Gaussian 16 at Tue Jun 21 10:10:40 2022.
