 Gaussian 16, Revision B.01,

 ---------------------------------------
 # b3lyp/gen opt freq CPHF(Grid=OneStep)
 ---------------------------------------

 ------------------------------
 acetyl chloride, B3LYP/pcseg-2
 ------------------------------
 Symbolic Z-matrix:
 Charge =  0 Multiplicity = 1

 SCF Done:  E(RB3LYP) =  -613.554462325     A.U. after   14 cycles
 Optimization completed.
    -- Stationary point found.
 Normal termination of Gaussian 16 at Thu Sep 28 22:34:39 2023.

 ------------------------------------------------------------------
 #N Geom=AllCheck Guess=TCheck SCRF=Check GenChk RB3LYP/ChkBas Freq
 ------------------------------------------------------------------

 Structure from the checkpoint file:  "AcCl.chk"
 ------------------------------
 acetyl chloride, B3LYP/pcseg-2
 ------------------------------
 Charge =  0 Multiplicity = 1

 SCF Done:  E(RB3LYP) =  -613.554462325     A.U. after    1 cycles

  Exact polarizability:  40.096   2.813  51.202   0.000  -0.000  27.817
 Approx polarizability:  54.913  -1.569  83.402   0.000   0.000  40.846

                      1                      2                      3
                     A"                     A'                     A'
 Frequencies --    129.9876               342.3668               428.6871
 Red. masses --      1.0536                 3.4061                17.3669
 Frc consts  --      0.0105                 0.2352                 1.8804
 IR Inten    --      0.0479                 2.0463                27.4156

                      4                      5                      6
                     A"                     A'                     A'
 Frequencies --    520.4852               597.7256               955.4481
 Red. masses --      2.9236                 4.4279                 2.8623
 Frc consts  --      0.4666                 0.9321                 1.5395
 IR Inten    --      2.1614               131.5982                73.6057

                      7                      8                      9
                     A"                     A'                     A'
 Frequencies --   1047.6129              1114.1055              1392.9241
 Red. masses --      1.6295                 1.9587                 1.2416
 Frc consts  --      1.0537                 1.4324                 1.4193
 IR Inten    --      3.4251               143.3327                22.9311

                     10                     11                     12
                     A'                     A"                     A'
 Frequencies --   1464.8874              1467.6736              1882.8495
 Red. masses --      1.0495                 1.0446                12.1168
 Frc consts  --      1.3269                 1.3257                25.3087
 IR Inten    --     12.4857                12.6568               346.6986

                     13                     14                     15
                     A'                     A"                     A'
 Frequencies --   3056.3185              3124.5272              3151.9607
 Red. masses --      1.0332                 1.1000                 1.1058
 Frc consts  --      5.6864                 6.3271                 6.4727
 IR Inten    --      0.4264                 0.1860                 5.1498

 - Thermochemistry -
 -------------------
 Temperature   298.150 Kelvin.  Pressure   1.00000 Atm.
 Atom     1 has atomic number  6 and mass  12.00000

 Molecular mass:    77.98724 amu.
 Principal axes and moments of inertia in atomic units:
                           1         2         3
     Eigenvalues --   177.31376 371.77826 537.99835
           X            0.35280   0.93570   0.00000
           Y            0.93570  -0.35280   0.00000
           Z           -0.00000  -0.00000   1.00000
 This molecule is an asymmetric top.
 Rotational symmetry number  1.
 Rotational temperatures (Kelvin)      0.48848     0.23297     0.16099
 Rotational constants (GHZ):          10.17824     4.85435     3.35455
 Zero-point vibrational energy     123679.3 (Joules/Mol)
                                   29.56006 (Kcal/Mol)
 Warning -- explicit consideration of   5 degrees of freedom as
           vibrations may cause significant error
 Vibrational temperatures:    187.02   492.59   616.79   748.86   859.99
          (Kelvin)           1374.68  1507.28  1602.95  2004.11  2107.65
                             2111.65  2709.00  4397.36  4495.50  4534.97

 Zero-point correction=                           0.047107 (Hartree/Particle)
 Thermal correction to Energy=                    0.051759
 Thermal correction to Enthalpy=                  0.052703
 Thermal correction to Gibbs Free Energy=         0.019244
 Sum of electronic and zero-point Energies=           -613.507355
 Sum of electronic and thermal Energies=              -613.502703
 Sum of electronic and thermal Enthalpies=            -613.501759
 Sum of electronic and thermal Free Energies=         -613.535218

                     E (Thermal)             CV                S
                      KCal/Mol        Cal/Mol-Kelvin    Cal/Mol-Kelvin
 Total                   32.479             14.445             70.421
 Electronic               0.000              0.000              0.000
 Translational            0.889              2.981             38.977
 Rotational               0.889              2.981             25.076
 Vibrational             30.702              8.484              6.369
 Vibration     1          0.612              1.923              2.946
 Vibration     2          0.721              1.591              1.201
 Vibration     3          0.790              1.408              0.863
 Vibration     4          0.875              1.205              0.609
 Vibration     5          0.956              1.037              0.454

 Optimization completed.
    -- Stationary point found.
 Normal termination of Gaussian 16 at Thu Sep 28 22:37:00 2023.
 Gaussian 16:  ES64L-G16RevB.01 20-Dec-2017

 ---------------------------------
 # rohf/gen geom=check guess=check
 ---------------------------------

 ---------------------------------
 acetyl chloride, ROHF/cc-pVTZ-F12
 ---------------------------------
 Structure from the checkpoint file:  "AcCl.chk"
 Charge =  0 Multiplicity = 1

                         Standard orientation:
 ---------------------------------------------------------------------
 Center     Atomic      Atomic             Coordinates (Angstroms)
 Number     Number       Type             X           Y           Z
 ---------------------------------------------------------------------
      1          6           0       -0.000000    0.540514    0.000000
      2          6           0        1.485067    0.732104    0.000000
      3          8           0       -0.840570    1.367357    0.000000
      4         17           0       -0.454478   -1.227787    0.000000
      5          1           0        1.710951    1.795285    0.000000
      6          1           0        1.914668    0.251261    0.877842
      7          1           0        1.914668    0.251261   -0.877842
 ---------------------------------------------------------------------

 SCF Done:  E(ROHF) =  -611.942256403     A.U. after   12 cycles

 The electronic state is 1-A'.
 Alpha  occ. eigenvalues -- -104.84441 -20.59642 -11.41351 -11.26870 -10.56986
 Alpha  occ. eigenvalues --   -8.03659  -8.03520  -8.03513  -1.45556  -1.12921
 Alpha  occ. eigenvalues --   -1.03352  -0.77858  -0.68210  -0.67361  -0.64596
 Alpha  occ. eigenvalues --   -0.58747  -0.55608  -0.46747  -0.46705  -0.45344
 Alpha virt. eigenvalues --    0.03974   0.06184   0.06794   0.06817   0.08884
 Alpha virt. eigenvalues --    0.09745   0.10064   0.10869   0.11261   0.12938
 Alpha virt. eigenvalues --    0.14056   0.16487   0.18821   0.20416   0.20662

 Mulliken charges and spin densities:
               1          2
     1  C    0.456166  -0.000000
     2  C   -0.286904  -0.000000
     3  O   -0.476569  -0.000000
     4  Cl  -0.081601  -0.000000
     5  H    0.129404  -0.000000
     6  H    0.129752  -0.000000
     7  H    0.129752  -0.000000
 Sum of Mulliken charges =  -0.00000  -0.00000

 Dipole moment (field-independent basis, Debye):
    X=              3.1252    Y=              0.1049    Z=             -0.0000  Tot=              3.1269
 Quadrupole moment (field-independent basis, Debye-Ang):
   XX=            -29.7104   YY=            -33.1314   ZZ=            -29.6497
   XY=              3.0806   XZ=             -0.0000   YZ=              0.0000

 Normal termination of Gaussian 16 at Thu Sep 28 22:38:06 2023.
