 Gaussian 16, Revision B.01,
 Gaussian 16:  ES64L-G16RevB.01 20-Dec-2017

 --------------------
 # b3lyp/gen opt freq
 --------------------

 ------------------------------
 acetyl chloride, B3LYP/pcseg-2
 ------------------------------
 Symbolic Z-matrix:
 Charge =  0 Multiplicity = 1

 SCF Done:  E(RB3LYP) =  -613.554396030     A.U. after   14 cycles
 SCF Done:  E(RB3LYP) =  -613.554458095     A.U. after    9 cycles
 SCF Done:  E(RB3LYP) =  -613.554460987     A.U. after    8 cycles
 SCF Done:  E(RB3LYP) =  -613.554462325     A.U. after    8 cycles
 Optimization completed.
    -- Stationary point found.
 Normal termination of Gaussian 16 at Thu Jun 16 09:04:36 2022.

 ------------------------------------------------------------------
 #N Geom=AllCheck Guess=TCheck SCRF=Check GenChk RB3LYP/ChkBas Freq
 ------------------------------------------------------------------

 Structure from the checkpoint file:  "/wrk/irikura/Gau-18927.chk"
 ------------------------------
 acetyl chloride, B3LYP/pcseg-2
 ------------------------------
 Charge =  0 Multiplicity = 1

                         Standard orientation:
 ---------------------------------------------------------------------
 Center     Atomic      Atomic             Coordinates (Angstroms)
 Number     Number       Type             X           Y           Z
 ---------------------------------------------------------------------
      1          6           0        0.000000    0.540514    0.000000
      2          6           0        1.485067    0.732104    0.000000
      3          8           0       -0.840570    1.367357    0.000000
      4         17           0       -0.454478   -1.227787    0.000000
      5          1           0        1.710951    1.795285    0.000000
      6          1           0        1.914668    0.251261    0.877842
      7          1           0        1.914668    0.251261   -0.877842
 ---------------------------------------------------------------------

 SCF Done:  E(RB3LYP) =  -613.554462325     A.U. after    1 cycles

 The electronic state is 1-A'.
 Alpha  occ. eigenvalues -- -101.51610 -19.16544 -10.33541 -10.21301  -9.46175
 Alpha  occ. eigenvalues --   -7.22234  -7.21552  -7.21432  -1.11008  -0.85517
 Alpha  occ. eigenvalues --   -0.77517  -0.57237  -0.50523  -0.48938  -0.48779
 Alpha  occ. eigenvalues --   -0.43171  -0.41407  -0.33298  -0.32922  -0.30941
 Alpha virt. eigenvalues --   -0.05112   0.00033   0.01273   0.06519   0.06532
 Alpha virt. eigenvalues --    0.08936   0.13890   0.15389   0.15641   0.17600
 Alpha virt. eigenvalues --    0.19542   0.27112   0.29361   0.30358   0.31166

 Mulliken charges:
               1
     1  C    0.299492
     2  C   -0.045574
     3  O   -0.291590
     4  Cl  -0.154339
     5  H    0.065658
     6  H    0.063177
     7  H    0.063177
 Sum of Mulliken charges =  -0.00000

 Dipole moment (field-independent basis, Debye):
    X=              2.9105    Y=              0.2624    Z=             -0.0000  Tot=              2.9223
 Quadrupole moment (field-independent basis, Debye-Ang):
   XX=            -29.7378   YY=            -32.9350   ZZ=            -29.6299
   XY=              2.7158   XZ=             -0.0000   YZ=             -0.0000

  Exact polarizability:  40.097   2.812  51.202   0.000  -0.000  27.817
 Approx polarizability:  54.913  -1.569  83.402  -0.000  -0.000  40.846

                      1                      2                      3
                     A"                     A'                     A'
 Frequencies --    129.9823               342.3704               428.6797
 Red. masses --      1.0536                 3.4061                17.3672
 Frc consts  --      0.0105                 0.2352                 1.8804
 IR Inten    --      0.0479                 2.0469                27.4150

                      4                      5                      6
                     A"                     A'                     A'
 Frequencies --    520.4911               597.7191               955.4522
 Red. masses --      2.9236                 4.4278                 2.8623
 Frc consts  --      0.4667                 0.9320                 1.5395
 IR Inten    --      2.1612               131.5888                73.6070

                      7                      8                      9
                     A"                     A'                     A'
 Frequencies --   1047.6157              1114.1035              1392.9219
 Red. masses --      1.6295                 1.9587                 1.2416
 Frc consts  --      1.0537                 1.4324                 1.4193
 IR Inten    --      3.4256               143.3224                22.9325

                     10                     11                     12
                     A'                     A"                     A'
 Frequencies --   1464.8832              1467.6721              1882.8413
 Red. masses --      1.0495                 1.0446                12.1167
 Frc consts  --      1.3269                 1.3257                25.3082
 IR Inten    --     12.4878                12.6565               346.6920

                     13                     14                     15
                     A'                     A"                     A'
 Frequencies --   3056.3159              3124.5250              3151.9568
 Red. masses --      1.0332                 1.1000                 1.1058
 Frc consts  --      5.6863                 6.3271                 6.4727
 IR Inten    --      0.4256                 0.1861                 5.1517

 - Thermochemistry -
 -------------------
 Temperature   298.150 Kelvin.  Pressure   1.00000 Atm.
 Atom     1 has atomic number  6 and mass  12.00000

 Molecular mass:    77.98724 amu.
 Principal axes and moments of inertia in atomic units:
                           1         2         3
     Eigenvalues --   177.31376 371.77817 537.99826
           X            0.35280   0.93570   0.00000
           Y            0.93570  -0.35280   0.00000
           Z           -0.00000  -0.00000   1.00000
 This molecule is an asymmetric top.
 Rotational symmetry number  1.
 Rotational temperatures (Kelvin)      0.48848     0.23297     0.16099
 Rotational constants (GHZ):          10.17824     4.85435     3.35455
 Zero-point vibrational energy     123679.1 (Joules/Mol)
                                   29.56001 (Kcal/Mol)
 Warning -- explicit consideration of   5 degrees of freedom as
           vibrations may cause significant error
 Vibrational temperatures:    187.02   492.59   616.77   748.87   859.98
          (Kelvin)           1374.68  1507.29  1602.95  2004.10  2107.64
                             2111.65  2708.99  4397.36  4495.49  4534.96

 Zero-point correction=                           0.047107 (Hartree/Particle)
 Thermal correction to Energy=                    0.051759
 Thermal correction to Enthalpy=                  0.052703
 Thermal correction to Gibbs Free Energy=         0.019244
 Sum of electronic and zero-point Energies=           -613.507355
 Sum of electronic and thermal Energies=              -613.502703
 Sum of electronic and thermal Enthalpies=            -613.501759
 Sum of electronic and thermal Free Energies=         -613.535219

                     E (Thermal)             CV                S
                      KCal/Mol        Cal/Mol-Kelvin    Cal/Mol-Kelvin
 Total                   32.479             14.445             70.421
 Electronic               0.000              0.000              0.000
 Translational            0.889              2.981             38.977
 Rotational               0.889              2.981             25.076
 Vibrational             30.702              8.484              6.369
 Vibration     1          0.612              1.923              2.946
 Vibration     2          0.722              1.591              1.201
 Vibration     3          0.790              1.408              0.863
 Vibration     4          0.875              1.205              0.609
 Vibration     5          0.956              1.037              0.454

 Optimization completed.
    -- Stationary point found.
 Normal termination of Gaussian 16 at Thu Jun 16 09:05:14 2022.
