 Gaussian 16, Revision B.01,

 ---------------------------------------
 # b3lyp/gen opt freq CPHF(Grid=OneStep)
 ---------------------------------------

 -----------------------------
 acenaphthylene, B3LYP/pcseg-2
 -----------------------------
 Symbolic Z-matrix:
 Charge =  0 Multiplicity = 1

 SCF Done:  E(RB3LYP) =  -462.253658160     A.U. after   14 cycles
 Optimization completed.
    -- Stationary point found.
 Normal termination of Gaussian 16 at Wed Sep 27 22:52:43 2023.

 ------------------------------------------------------------------
 #N Geom=AllCheck Guess=TCheck SCRF=Check GenChk RB3LYP/ChkBas Freq
 ------------------------------------------------------------------

 Structure from the checkpoint file:  "acenaphthylene.chk"
 -----------------------------
 acenaphthylene, B3LYP/pcseg-2
 -----------------------------
 Charge =  0 Multiplicity = 1

 SCF Done:  E(RB3LYP) =  -462.253658160     A.U. after    1 cycles

  Exact polarizability:  68.350  -0.000 185.435  -0.000   0.000 161.592
 Approx polarizability: 112.606  -0.000 345.562  -0.000   0.000 288.053

                      1                      2                      3
                     B1                     A2                     B1
 Frequencies --    159.1776               212.6412               228.1283
 Red. masses --      4.1365                 3.8017                 3.7217
 Frc consts  --      0.0618                 0.1013                 0.1141
 IR Inten    --      6.8058                 0.0000                 4.4100

                      4                      5                      6
                     A2                     A1                     B1
 Frequencies --    377.0967               423.6830               463.9912
 Red. masses --      3.4730                 4.3912                 3.1928
 Frc consts  --      0.2910                 0.4644                 0.4050
 IR Inten    --      0.0000                 2.0452                 0.0012

                      7                      8                      9
                     B2                     B2                     A1
 Frequencies --    471.7157               519.4884               562.0259
 Red. masses --      3.9873                 7.6220                 6.6044
 Frc consts  --      0.5227                 1.2119                 1.2291
 IR Inten    --      1.3483                 1.5621                 3.0432

                     10                     11                     12
                     A2                     B1                     A1
 Frequencies --    587.8250               618.5380               670.1107
 Red. masses --      3.2228                 2.9718                 5.9533
 Frc consts  --      0.6561                 0.6699                 1.5751
 IR Inten    --      0.0000                 0.0655                 0.3661

                     13                     14                     15
                     A2                     B2                     B1
 Frequencies --    678.7158               697.1684               746.6937
 Red. masses --      2.9780                 6.3136                 1.5417
 Frc consts  --      0.8083                 1.8080                 0.5064
 IR Inten    --      0.0000                 0.0441                51.8321

                     16                     17                     18
                     A2                     B1                     A1
 Frequencies --    770.9559               793.2963               820.3606
 Red. masses --      1.2905                 1.4805                 5.0471
 Frc consts  --      0.4519                 0.5489                 2.0012
 IR Inten    --      0.0000                50.5173                 0.4447

                     19                     20                     21
                     B1                     B2                     A2
 Frequencies --    857.8709               882.3359               928.4088
 Red. masses --      3.4477                 4.5309                 1.3241
 Frc consts  --      1.4949                 2.0783                 0.6724
 IR Inten    --     41.5635                 3.5711                 0.0000

                     22                     23                     24
                     B1                     A2                     A2
 Frequencies --    941.0703               947.5927               993.6979
 Red. masses --      1.4460                 1.4017                 1.3404
 Frc consts  --      0.7545                 0.7416                 0.7798
 IR Inten    --      1.9508                 0.0000                 0.0000

                     25                     26                     27
                     B1                     A1                     B2
 Frequencies --    999.6314              1028.9488              1035.9826
 Red. masses --      1.3360                 3.4962                 2.7760
 Frc consts  --      0.7866                 2.1809                 1.7554
 IR Inten    --      0.8896                 1.3472                 0.4375

                     28                     29                     30
                     A1                     A1                     B2
 Frequencies --   1057.2352              1105.8792              1116.6175
 Red. masses --      2.0027                 1.1571                 2.4632
 Frc consts  --      1.3189                 0.8337                 1.8095
 IR Inten    --      2.9287                12.1121                 2.1196

                     31                     32                     33
                     B2                     A1                     B2
 Frequencies --   1177.5150              1205.0255              1226.6319
 Red. masses --      1.3743                 1.2762                 1.6862
 Frc consts  --      1.1227                 1.0919                 1.4949
 IR Inten    --      5.0268                 2.8480                 2.2594

                     34                     35                     36
                     B2                     A1                     B2
 Frequencies --   1248.8271              1275.9633              1335.8038
 Red. masses --      2.0025                 2.3053                 2.2073
 Frc consts  --      1.8400                 2.2114                 2.3206
 IR Inten    --      3.8994                 0.5300                 0.3365

                     37                     38                     39
                     A1                     B2                     A1
 Frequencies --   1386.4296              1420.7256              1450.6297
 Red. masses --      3.3263                 2.7114                 2.8070
 Frc consts  --      3.7671                 3.2245                 3.4802
 IR Inten    --      3.2463                 6.1369                 4.3418

                     40                     41                     42
                     A1                     B2                     B2
 Frequencies --   1456.4353              1488.8196              1516.4880
 Red. masses --      2.8383                 3.6671                 2.9156
 Frc consts  --      3.5472                 4.7891                 3.9506
 IR Inten    --     34.2340                16.7908                 9.6817

                     43                     44                     45
                     A1                     A1                     A1
 Frequencies --   1538.1834              1633.8743              1648.7284
 Red. masses --      4.4366                 6.3613                 6.9668
 Frc consts  --      6.1846                10.0053                11.1579
 IR Inten    --     14.2929                 0.0029                 1.2027

                     46                     47                     48
                     B2                     B2                     A1
 Frequencies --   1656.9219              3165.2985              3165.6766
 Red. masses --      6.6912                 1.0863                 1.0863
 Frc consts  --     10.8233                 6.4127                 6.4140
 IR Inten    --      2.6943                 0.0040                 0.8478

                     49                     50                     51
                     B2                     A1                     B2
 Frequencies --   3174.1703              3174.9094              3188.3188
 Red. masses --      1.0906                 1.0903                 1.0953
 Frc consts  --      6.4740                 6.4755                 6.5600
 IR Inten    --      5.9958                20.7829                37.2107

                     52                     53                     54
                     A1                     B2                     A1
 Frequencies --   3189.1415              3208.9790              3228.1294
 Red. masses --      1.0949                 1.0878                 1.1016
 Frc consts  --      6.5608                 6.6000                 6.7637
 IR Inten    --     11.1623                 1.3404                12.6669

 - Thermochemistry -
 -------------------
 Temperature   298.150 Kelvin.  Pressure   1.00000 Atm.
 Atom     1 has atomic number  6 and mass  12.00000

 Molecular mass:   152.06260 amu.
 Principal axes and moments of inertia in atomic units:
                           1         2         3
     Eigenvalues --  1187.177361469.987232657.16459
           X            0.00000   0.00000   1.00000
           Y            1.00000   0.00000  -0.00000
           Z           -0.00000   1.00000  -0.00000
 This molecule is an asymmetric top.
 Rotational symmetry number  2.
 Warning -- assumption of classical behavior for rotation
           may cause significant error
 Rotational temperatures (Kelvin)      0.07296     0.05892     0.03260
 Rotational constants (GHZ):           1.52020     1.22773     0.67920
 Zero-point vibrational energy     417846.7 (Joules/Mol)
                                   99.86775 (Kcal/Mol)
 Warning -- explicit consideration of  11 degrees of freedom as
           vibrations may cause significant error
 Vibrational temperatures:    229.02   305.94   328.23   542.56   609.59
          (Kelvin)            667.58   678.69   747.43   808.63   845.75
                              889.94   964.14   976.52  1003.07  1074.33
                             1109.23  1141.38  1180.32  1234.28  1269.48
                             1335.77  1353.99  1363.37  1429.71  1438.25
                             1480.43  1490.55  1521.13  1591.11  1606.56
                             1694.18  1733.76  1764.85  1796.78  1835.83
                             1921.92  1994.76  2044.11  2087.13  2095.49
                             2142.08  2181.89  2213.10  2350.78  2372.15
                             2383.94  4554.16  4554.70  4566.92  4567.99
                             4587.28  4588.46  4617.00  4644.56

 Zero-point correction=                           0.159149 (Hartree/Particle)
 Thermal correction to Energy=                    0.166803
 Thermal correction to Enthalpy=                  0.167747
 Thermal correction to Gibbs Free Energy=         0.127434
 Sum of electronic and zero-point Energies=           -462.094509
 Sum of electronic and thermal Energies=              -462.086855
 Sum of electronic and thermal Enthalpies=            -462.085911
 Sum of electronic and thermal Free Energies=         -462.126224

                     E (Thermal)             CV                S
                      KCal/Mol        Cal/Mol-Kelvin    Cal/Mol-Kelvin
 Total                  104.670             33.289             84.845
 Electronic               0.000              0.000              0.000
 Translational            0.889              2.981             40.967
 Rotational               0.889              2.981             28.540
 Vibrational            102.893             27.327             15.337
 Vibration     1          0.621              1.892              2.560
 Vibration     2          0.644              1.822              2.021
 Vibration     3          0.651              1.798              1.894
 Vibration     4          0.748              1.519              1.051
 Vibration     5          0.786              1.419              0.880
 Vibration     6          0.822              1.330              0.755
 Vibration     7          0.829              1.313              0.733
 Vibration     8          0.874              1.207              0.611
 Vibration     9          0.918              1.113              0.520
 Vibration    10          0.945              1.058              0.471
 Vibration    11          0.978              0.993              0.419

 Optimization completed.
    -- Stationary point found.
 Normal termination of Gaussian 16 at Wed Sep 27 23:42:29 2023.
 Gaussian 16:  ES64L-G16RevB.01 20-Dec-2017

 ---------------------------------
 # rohf/gen geom=check guess=check
 ---------------------------------

 --------------------------------
 acenaphthylene, ROHF/cc-pVTZ-F12
 --------------------------------
 Structure from the checkpoint file:  "acenaphthylene.chk"
 Charge =  0 Multiplicity = 1

                         Standard orientation:
 ---------------------------------------------------------------------
 Center     Atomic      Atomic             Coordinates (Angstroms)
 Number     Number       Type             X           Y           Z
 ---------------------------------------------------------------------
      1          6           0       -0.000000   -0.000000   -0.139905
      2          6           0       -0.000000    1.157838   -0.947765
      3          6           0       -0.000000   -1.157838   -0.947765
      4          6           0        0.000000    0.000000    1.251296
      5          6           0       -0.000000    0.679402   -2.337275
      6          6           0       -0.000000    2.381835   -0.320103
      7          6           0       -0.000000   -0.679402   -2.337275
      8          6           0       -0.000000   -2.381835   -0.320103
      9          6           0        0.000000   -1.278641    1.873534
     10          6           0        0.000000    1.278641    1.873534
     11          6           0       -0.000000    2.420533    1.100201
     12          6           0       -0.000000   -2.420533    1.100201
     13          1           0       -0.000000    1.311919   -3.211556
     14          1           0       -0.000000    3.310586   -0.876297
     15          1           0       -0.000000   -1.311919   -3.211556
     16          1           0       -0.000000   -3.310586   -0.876297
     17          1           0        0.000000   -1.356735    2.953177
     18          1           0        0.000000    1.356735    2.953177
     19          1           0       -0.000000    3.385764    1.588953
     20          1           0       -0.000000   -3.385764    1.588953
 ---------------------------------------------------------------------

 SCF Done:  E(ROHF) =  -459.242525035     A.U. after   14 cycles

 The electronic state is 1-A1.
 Alpha  occ. eigenvalues --  -11.24649 -11.24649 -11.24308 -11.24291 -11.23998
 Alpha  occ. eigenvalues --  -11.23872 -11.23825 -11.23825 -11.23728 -11.23592
 Alpha  occ. eigenvalues --  -11.23584 -11.21373  -1.20156  -1.11421  -1.11286
 Alpha  occ. eigenvalues --   -1.01529  -0.99232  -0.97685  -0.87449  -0.84286
 Alpha  occ. eigenvalues --   -0.79289  -0.78352  -0.70952  -0.69494  -0.65970
 Alpha  occ. eigenvalues --   -0.63391  -0.61510  -0.58880  -0.58438  -0.56082
 Alpha  occ. eigenvalues --   -0.55439  -0.54887  -0.51492  -0.48484  -0.47586
 Alpha  occ. eigenvalues --   -0.45310  -0.44672  -0.32318  -0.30326  -0.30217
 Alpha virt. eigenvalues --    0.04025   0.04486   0.04496   0.04624   0.05883
 Alpha virt. eigenvalues --    0.05993   0.07592   0.08023   0.08196   0.08354
 Alpha virt. eigenvalues --    0.08673   0.09672   0.10380   0.10536   0.10589

 Mulliken charges and spin densities:
               1          2
     1  C    0.467947   0.000000
     2  C    0.022125   0.000000
     3  C    0.022125   0.000000
     4  C    0.083921   0.000000
     5  C   -0.213219   0.000000
     6  C   -0.183768   0.000000
     7  C   -0.213219   0.000000
     8  C   -0.183768   0.000000
     9  C   -0.244509   0.000000
    10  C   -0.244509   0.000000
    11  C   -0.204134   0.000000
    12  C   -0.204134   0.000000
    13  H    0.149699   0.000000
    14  H    0.130288   0.000000
    15  H    0.149699   0.000000
    16  H    0.130288   0.000000
    17  H    0.132641   0.000000
    18  H    0.132641   0.000000
    19  H    0.134943   0.000000
    20  H    0.134943   0.000000
 Sum of Mulliken charges =  -0.00000   0.00000

 Dipole moment (field-independent basis, Debye):
    X=             -0.0000    Y=             -0.0000    Z=              0.1787  Tot=              0.1787
 Quadrupole moment (field-independent basis, Debye-Ang):
   XX=            -76.9284   YY=            -59.7952   ZZ=            -61.7030
   XY=              0.0000   XZ=              0.0000   YZ=             -0.0000

 Normal termination of Gaussian 16 at Thu Sep 28 00:13:31 2023.
