 Gaussian 16, Revision B.01,
 Gaussian 16:  ES64L-G16RevB.01 20-Dec-2017

 --------------------
 # opt freq b3lyp/gen
 --------------------

 -----------------------------
 acenaphthylene, B3LYP/pcseg-2
 -----------------------------
 Symbolic Z-matrix:
 Charge =  0 Multiplicity = 1

 SCF Done:  E(RB3LYP) =  -462.253223020     A.U. after   15 cycles
 SCF Done:  E(RB3LYP) =  -462.253653749     A.U. after   11 cycles
 SCF Done:  E(RB3LYP) =  -462.253658160     A.U. after    7 cycles
 Optimization completed.
    -- Stationary point found.
 Normal termination of Gaussian 16 at Tue Jun 14 20:41:14 2022.

 ------------------------------------------------------------------
 #N Geom=AllCheck Guess=TCheck SCRF=Check GenChk RB3LYP/ChkBas Freq
 ------------------------------------------------------------------

 Structure from the checkpoint file:  "/wrk/irikura/Gau-11082.chk"
 -----------------------------
 acenaphthylene, B3LYP/pcseg-2
 -----------------------------
 Charge =  0 Multiplicity = 1

                         Standard orientation:
 ---------------------------------------------------------------------
 Center     Atomic      Atomic             Coordinates (Angstroms)
 Number     Number       Type             X           Y           Z
 ---------------------------------------------------------------------
      1          6           0        0.000000   -0.000000   -0.139905
      2          6           0       -0.000000    1.157838   -0.947765
      3          6           0       -0.000000   -1.157838   -0.947765
      4          6           0       -0.000000    0.000000    1.251296
      5          6           0       -0.000000    0.679402   -2.337275
      6          6           0       -0.000000    2.381835   -0.320103
      7          6           0       -0.000000   -0.679402   -2.337275
      8          6           0       -0.000000   -2.381835   -0.320103
      9          6           0        0.000000   -1.278641    1.873534
     10          6           0        0.000000    1.278641    1.873534
     11          6           0       -0.000000    2.420533    1.100201
     12          6           0       -0.000000   -2.420533    1.100201
     13          1           0       -0.000000    1.311919   -3.211556
     14          1           0       -0.000000    3.310586   -0.876297
     15          1           0       -0.000000   -1.311919   -3.211556
     16          1           0       -0.000000   -3.310586   -0.876297
     17          1           0        0.000000   -1.356735    2.953177
     18          1           0        0.000000    1.356735    2.953177
     19          1           0       -0.000000    3.385764    1.588953
     20          1           0       -0.000000   -3.385764    1.588953
 ---------------------------------------------------------------------

 SCF Done:  E(RB3LYP) =  -462.253658160     A.U. after    1 cycles

 The electronic state is 1-A1.
 Alpha  occ. eigenvalues --  -10.18879 -10.18879 -10.18588 -10.18557 -10.18521
 Alpha  occ. eigenvalues --  -10.18278 -10.18278 -10.18016 -10.18015 -10.17885
 Alpha  occ. eigenvalues --  -10.17810 -10.15968  -0.89935  -0.83049  -0.82987
 Alpha  occ. eigenvalues --   -0.75207  -0.73318  -0.71884  -0.64552  -0.62285
 Alpha  occ. eigenvalues --   -0.58484  -0.57891  -0.52026  -0.51444  -0.48467
 Alpha  occ. eigenvalues --   -0.46469  -0.44787  -0.42515  -0.42308  -0.41425
 Alpha  occ. eigenvalues --   -0.40518  -0.39284  -0.36768  -0.34343  -0.34088
 Alpha  occ. eigenvalues --   -0.33635  -0.33553  -0.25663  -0.23923  -0.22680
 Alpha virt. eigenvalues --   -0.08335  -0.02189   0.01777   0.02668   0.02783
 Alpha virt. eigenvalues --    0.02829   0.03435   0.04774   0.04776   0.07218
 Alpha virt. eigenvalues --    0.07864   0.09345   0.10505   0.11465   0.13559

 Mulliken charges:
               1
     1  C    0.258889
     2  C    0.198067
     3  C    0.198067
     4  C    0.227122
     5  C   -0.163026
     6  C   -0.152406
     7  C   -0.163026
     8  C   -0.152406
     9  C   -0.175208
    10  C   -0.175208
    11  C   -0.006074
    12  C   -0.006074
    13  H    0.012924
    14  H    0.015071
    15  H    0.012924
    16  H    0.015071
    17  H    0.009917
    18  H    0.009917
    19  H    0.017730
    20  H    0.017730
 Sum of Mulliken charges =  -0.00000

 Dipole moment (field-independent basis, Debye):
    X=              0.0000    Y=              0.0000    Z=              0.3279  Tot=              0.3279
 Quadrupole moment (field-independent basis, Debye-Ang):
   XX=            -75.2299   YY=            -60.2495   ZZ=            -62.2074
   XY=             -0.0000   XZ=             -0.0000   YZ=              0.0000

  Exact polarizability:  68.347   0.000 185.435   0.000   0.000 161.592
 Approx polarizability: 112.606  -0.000 345.562  -0.000   0.000 288.053

                      1                      2                      3
                     B1                     A2                     B1
 Frequencies --    159.1778               212.6413               228.1306
 Red. masses --      4.1365                 3.8017                 3.7217
 Frc consts  --      0.0618                 0.1013                 0.1141
 IR Inten    --      6.8066                 0.0000                 4.4096

                      4                      5                      6
                     A2                     A1                     B1
 Frequencies --    377.0970               423.6794               463.9919
 Red. masses --      3.4730                 4.3912                 3.1928
 Frc consts  --      0.2910                 0.4644                 0.4050
 IR Inten    --      0.0000                 2.0454                 0.0012

                      7                      8                      9
                     B2                     B2                     A1
 Frequencies --    471.7130               519.4874               562.0250
 Red. masses --      3.9873                 7.6220                 6.6044
 Frc consts  --      0.5227                 1.2119                 1.2291
 IR Inten    --      1.3482                 1.5626                 3.0434

                     10                     11                     12
                     A2                     B1                     A1
 Frequencies --    587.8257               618.5384               670.1105
 Red. masses --      3.2228                 2.9718                 5.9533
 Frc consts  --      0.6561                 0.6699                 1.5751
 IR Inten    --      0.0000                 0.0655                 0.3660

                     13                     14                     15
                     A2                     B2                     B1
 Frequencies --    678.7154               697.1668               746.6974
 Red. masses --      2.9780                 6.3136                 1.5416
 Frc consts  --      0.8082                 1.8080                 0.5064
 IR Inten    --      0.0000                 0.0441                51.8309

                     16                     17                     18
                     A2                     B1                     A1
 Frequencies --    770.9589               793.2977               820.3598
 Red. masses --      1.2905                 1.4805                 5.0471
 Frc consts  --      0.4519                 0.5489                 2.0012
 IR Inten    --      0.0000                50.5201                 0.4447

                     19                     20                     21
                     B1                     B2                     A2
 Frequencies --    857.8738               882.3363               928.4080
 Red. masses --      3.4477                 4.5309                 1.3241
 Frc consts  --      1.4950                 2.0783                 0.6724
 IR Inten    --     41.5613                 3.5713                 0.0000

                     22                     23                     24
                     B1                     A2                     A2
 Frequencies --    941.0705               947.5940               993.6997
 Red. masses --      1.4460                 1.4017                 1.3404
 Frc consts  --      0.7545                 0.7416                 0.7798
 IR Inten    --      1.9530                 0.0000                 0.0000

                     25                     26                     27
                     B1                     A1                     B2
 Frequencies --    999.6328              1028.9508              1035.9814
 Red. masses --      1.3360                 3.4961                 2.7761
 Frc consts  --      0.7866                 2.1808                 1.7554
 IR Inten    --      0.8894                 1.3472                 0.4373

                     28                     29                     30
                     A1                     A1                     B2
 Frequencies --   1057.2350              1105.8794              1116.6187
 Red. masses --      2.0028                 1.1571                 2.4633
 Frc consts  --      1.3189                 0.8337                 1.8095
 IR Inten    --      2.9285                12.1111                 2.1178

                     31                     32                     33
                     B2                     A1                     B2
 Frequencies --   1177.5177              1205.0265              1226.6313
 Red. masses --      1.3743                 1.2762                 1.6863
 Frc consts  --      1.1227                 1.0919                 1.4949
 IR Inten    --      5.0250                 2.8481                 2.2594

                     34                     35                     36
                     B2                     A1                     B2
 Frequencies --   1248.8304              1275.9640              1335.8054
 Red. masses --      2.0025                 2.3054                 2.2073
 Frc consts  --      1.8400                 2.2114                 2.3205
 IR Inten    --      3.8978                 0.5302                 0.3365

                     37                     38                     39
                     A1                     B2                     A1
 Frequencies --   1386.4275              1420.7286              1450.6310
 Red. masses --      3.3262                 2.7114                 2.8072
 Frc consts  --      3.7670                 3.2245                 3.4805
 IR Inten    --      3.2462                 6.1341                 4.3453

                     40                     41                     42
                     A1                     B2                     B2
 Frequencies --   1456.4359              1488.8184              1516.4882
 Red. masses --      2.8380                 3.6671                 2.9155
 Frc consts  --      3.5469                 4.7892                 3.9505
 IR Inten    --     34.2314                16.7932                 9.6829

                     43                     44                     45
                     A1                     A1                     A1
 Frequencies --   1538.1910              1633.8758              1648.7306
 Red. masses --      4.4367                 6.3611                 6.9671
 Frc consts  --      6.1849                10.0050                11.1584
 IR Inten    --     14.2885                 0.0030                 1.2018

                     46                     47                     48
                     B2                     B2                     A1
 Frequencies --   1656.9226              3165.3031              3165.6759
 Red. masses --      6.6911                 1.0863                 1.0863
 Frc consts  --     10.8232                 6.4127                 6.4140
 IR Inten    --      2.6948                 0.0041                 0.8465

                     49                     50                     51
                     B2                     A1                     B2
 Frequencies --   3174.1768              3174.9085              3188.3214
 Red. masses --      1.0906                 1.0903                 1.0953
 Frc consts  --      6.4740                 6.4755                 6.5600
 IR Inten    --      6.0032                20.7847                37.2076

                     52                     53                     54
                     A1                     B2                     A1
 Frequencies --   3189.1409              3208.9784              3228.1272
 Red. masses --      1.0949                 1.0878                 1.1016
 Frc consts  --      6.5608                 6.6000                 6.7637
 IR Inten    --     11.1634                 1.3402                12.6692

 - Thermochemistry -
 -------------------
 Temperature   298.150 Kelvin.  Pressure   1.00000 Atm.
 Atom     1 has atomic number  6 and mass  12.00000

 Molecular mass:   152.06260 amu.
 Principal axes and moments of inertia in atomic units:
                           1         2         3
     Eigenvalues --  1187.177431469.986982657.16441
           X            0.00000   0.00000   1.00000
           Y            1.00000   0.00000  -0.00000
           Z            0.00000   1.00000   0.00000
 This molecule is an asymmetric top.
 Rotational symmetry number  2.
 Warning -- assumption of classical behavior for rotation
           may cause significant error
 Rotational temperatures (Kelvin)      0.07296     0.05892     0.03260
 Rotational constants (GHZ):           1.52020     1.22773     0.67920
 Zero-point vibrational energy     417846.9 (Joules/Mol)
                                   99.86781 (Kcal/Mol)
 Warning -- explicit consideration of  11 degrees of freedom as
           vibrations may cause significant error
 Vibrational temperatures:    229.02   305.94   328.23   542.56   609.58
          (Kelvin)            667.58   678.69   747.43   808.63   845.75
                              889.94   964.14   976.52  1003.07  1074.33
                             1109.24  1141.38  1180.31  1234.29  1269.49
                             1335.77  1353.99  1363.38  1429.71  1438.25
                             1480.43  1490.55  1521.13  1591.11  1606.57
                             1694.19  1733.76  1764.85  1796.79  1835.83
                             1921.93  1994.76  2044.11  2087.13  2095.49
                             2142.08  2181.89  2213.11  2350.78  2372.16
                             2383.94  4554.17  4554.70  4566.93  4567.99
                             4587.28  4588.46  4617.00  4644.55

 Zero-point correction=                           0.159149 (Hartree/Particle)
 Thermal correction to Energy=                    0.166803
 Thermal correction to Enthalpy=                  0.167747
 Thermal correction to Gibbs Free Energy=         0.127435
 Sum of electronic and zero-point Energies=           -462.094509
 Sum of electronic and thermal Energies=              -462.086855
 Sum of electronic and thermal Enthalpies=            -462.085911
 Sum of electronic and thermal Free Energies=         -462.126224

                     E (Thermal)             CV                S
                      KCal/Mol        Cal/Mol-Kelvin    Cal/Mol-Kelvin
 Total                  104.670             33.289             84.845
 Electronic               0.000              0.000              0.000
 Translational            0.889              2.981             40.967
 Rotational               0.889              2.981             28.540
 Vibrational            102.893             27.327             15.337
 Vibration     1          0.621              1.892              2.560
 Vibration     2          0.644              1.822              2.021
 Vibration     3          0.651              1.798              1.894
 Vibration     4          0.748              1.519              1.051
 Vibration     5          0.786              1.419              0.880
 Vibration     6          0.822              1.330              0.755
 Vibration     7          0.829              1.313              0.733
 Vibration     8          0.874              1.207              0.611
 Vibration     9          0.918              1.113              0.520
 Vibration    10          0.945              1.058              0.471
 Vibration    11          0.978              0.993              0.419

 Optimization completed.
    -- Stationary point found.
 Normal termination of Gaussian 16 at Tue Jun 14 20:55:14 2022.
