 Gaussian 16, Revision B.01,

 ---------------------------------------
 # b3lyp/gen opt freq CPHF(Grid=OneStep)
 ---------------------------------------

 -----------------------
 acetonyl, B3LYP/pcseg-2
 -----------------------
 Symbolic Z-matrix:
 Charge =  0 Multiplicity = 2

 SCF Done:  E(UB3LYP) =  -192.578213951     A.U. after   16 cycles
 Optimization completed.
    -- Stationary point found.
 Normal termination of Gaussian 16 at Sat Sep 30 21:34:01 2023.

 ------------------------------------------------------------------
 #N Geom=AllCheck Guess=TCheck SCRF=Check GenChk UB3LYP/ChkBas Freq
 ------------------------------------------------------------------

 Structure from the checkpoint file:  "acetonyl.chk"
 -----------------------
 acetonyl, B3LYP/pcseg-2
 -----------------------
 Charge =  0 Multiplicity = 2

 SCF Done:  E(UB3LYP) =  -192.578213951     A.U. after    1 cycles

  Exact polarizability:  46.535   1.732  44.060  -0.000  -0.000  28.784
 Approx polarizability:  60.469   9.286  63.791  -0.000  -0.000  40.488

                      1                      2                      3
                     A"                     A"                     A'
 Frequencies --     29.2477               356.4423               387.1622
 Red. masses --      1.0694                 1.0451                 2.1411
 Frc consts  --      0.0005                 0.0782                 0.1891
 IR Inten    --      0.0485                 0.1130                 2.4420

                      4                      5                      6
                     A"                     A'                     A"
 Frequencies --    506.9245               527.4501               759.8781
 Red. masses --      2.1823                 3.5089                 1.3894
 Frc consts  --      0.3304                 0.5751                 0.4727
 IR Inten    --      0.9402                13.8134                30.5408

                      7                      8                      9
                     A'                     A'                     A"
 Frequencies --    817.7673               927.7406              1027.1323
 Red. masses --      3.1493                 1.6033                 1.6999
 Frc consts  --      1.2409                 0.8130                 1.0566
 IR Inten    --      3.3819                 5.5649                 5.3243

                     10                     11                     12
                     A'                     A'                     A'
 Frequencies --   1067.6202              1268.6742              1391.9914
 Red. masses --      1.6749                 2.8672                 1.3105
 Frc consts  --      1.1248                 2.7190                 1.4961
 IR Inten    --      5.5436                56.6828                27.8276

                     13                     14                     15
                     A'                     A'                     A"
 Frequencies --   1458.3150              1475.1364              1477.4922
 Red. masses --      1.1776                 1.1533                 1.0470
 Frc consts  --      1.4755                 1.4786                 1.3467
 IR Inten    --     32.0973                14.2465                 9.1821

                     16                     17                     18
                     A'                     A'                     A"
 Frequencies --   1582.2382              3035.2169              3089.4710
 Red. masses --      7.7353                 1.0376                 1.0993
 Frc consts  --     11.4096                 5.6318                 6.1822
 IR Inten    --     78.0837                 3.6284                 9.0181

                     19                     20                     21
                     A'                     A'                     A'
 Frequencies --   3144.2254              3146.7919              3259.9985
 Red. masses --      1.0947                 1.0574                 1.1196
 Frc consts  --      6.3761                 6.1691                 7.0104
 IR Inten    --      3.4311                 5.6241                 2.6713

 - Thermochemistry -
 -------------------
 Temperature   298.150 Kelvin.  Pressure   1.00000 Atm.
 Atom     1 has atomic number  6 and mass  12.00000

 Molecular mass:    57.03404 amu.
 Principal axes and moments of inertia in atomic units:
                           1         2         3
     Eigenvalues --   164.15415 198.53148 351.56985
           X            0.76064   0.64918   0.00000
           Y           -0.64918   0.76064   0.00000
           Z           -0.00000   0.00000   1.00000
 This molecule is an asymmetric top.
 Rotational symmetry number  1.
 Rotational temperatures (Kelvin)      0.52764     0.43627     0.24636
 Rotational constants (GHZ):          10.99419     9.09045     5.13338
 Zero-point vibrational energy     183847.6 (Joules/Mol)
                                   43.94063 (Kcal/Mol)
 Warning -- explicit consideration of   5 degrees of freedom as
           vibrations may cause significant error
 Vibrational temperatures:     42.08   512.84   557.04   729.35   758.88
          (Kelvin)           1093.30  1176.58  1334.81  1477.81  1536.07
                             1825.34  2002.77  2098.19  2122.39  2125.78
                             2276.49  4367.00  4445.06  4523.84  4527.53
                             4690.41

 Zero-point correction=                           0.070024 (Hartree/Particle)
 Thermal correction to Energy=                    0.075150
 Thermal correction to Enthalpy=                  0.076094
 Thermal correction to Gibbs Free Energy=         0.041196
 Sum of electronic and zero-point Energies=           -192.508190
 Sum of electronic and thermal Energies=              -192.503064
 Sum of electronic and thermal Enthalpies=            -192.502119
 Sum of electronic and thermal Free Energies=         -192.537018

                     E (Thermal)             CV                S
                      KCal/Mol        Cal/Mol-Kelvin    Cal/Mol-Kelvin
 Total                   47.158             16.469             73.451
 Electronic               0.000              0.000              1.377
 Translational            0.889              2.981             38.044
 Rotational               0.889              2.981             23.953
 Vibrational             45.380             10.508             10.076
 Vibration     1          0.593              1.984              5.880
 Vibration     2          0.732              1.562              1.138
 Vibration     3          0.756              1.498              1.011
 Vibration     4          0.862              1.235              0.641
 Vibration     5          0.882              1.189              0.593

 Optimization completed.
    -- Stationary point found.
 Normal termination of Gaussian 16 at Sat Sep 30 21:40:48 2023.
 Gaussian 16:  ES64L-G16RevB.01 20-Dec-2017

 ---------------------------------
 # rohf/gen geom=check guess=check
 ---------------------------------

 --------------------------
 acetonyl, ROHF/cc-pVTZ-F12
 --------------------------
 Structure from the checkpoint file:  "acetonyl.chk"
 Charge =  0 Multiplicity = 2

                         Standard orientation:
 ---------------------------------------------------------------------
 Center     Atomic      Atomic             Coordinates (Angstroms)
 Number     Number       Type             X           Y           Z
 ---------------------------------------------------------------------
      1          6           0       -0.000000    0.145448    0.000000
      2          8           0        0.476109    1.282290    0.000000
      3          6           0       -1.423040   -0.044052    0.000000
      4          6           0        0.890394   -1.081713    0.000000
      5          1           0       -2.062574    0.826479    0.000000
      6          1           0       -1.870228   -1.028492    0.000000
      7          1           0        1.933099   -0.776766    0.000000
      8          1           0        0.693354   -1.698819    0.878716
      9          1           0        0.693354   -1.698819   -0.878716
 ---------------------------------------------------------------------

 SCF Done:  E(ROHF) =  -191.414921972     A.U. after   15 cycles

 The electronic state is 2-A".
 Alpha  occ. eigenvalues --  -20.53975 -11.33242 -11.25792 -11.23621  -1.37117
 Alpha  occ. eigenvalues --   -1.03673  -0.95010  -0.74343  -0.65551  -0.64472
 Alpha  occ. eigenvalues --   -0.59996  -0.57046  -0.54957  -0.49359  -0.42435
 Alpha  occ. eigenvalues --   -0.10810
 Alpha virt. eigenvalues --    0.04187   0.04996   0.06882   0.07251   0.08049
 Alpha virt. eigenvalues --    0.08874   0.09719   0.10847   0.11038   0.12216
 Alpha virt. eigenvalues --    0.17015   0.17571   0.18135   0.21847   0.21955

 Mulliken charges and spin densities:
               1          2
     1  C    0.575046   0.060859
     2  O   -0.631535   0.075804
     3  C   -0.281738   0.825667
     4  C   -0.342742  -0.000119
     5  H    0.188512   0.014065
     6  H    0.142912   0.020505
     7  H    0.145930   0.000218
     8  H    0.101807   0.001501
     9  H    0.101807   0.001501
 Sum of Mulliken charges =  -0.00000   1.00000

 Dipole moment (field-independent basis, Debye):
    X=             -1.5974    Y=             -3.2645    Z=              0.0000  Tot=              3.6344
 Quadrupole moment (field-independent basis, Debye-Ang):
   XX=            -22.5592   YY=            -27.5845   ZZ=            -24.7257
   XY=             -2.1341   XZ=              0.0000   YZ=              0.0000

 Normal termination of Gaussian 16 at Sat Sep 30 21:42:38 2023.
