 Gaussian 16, Revision B.01,

 ---------------------------------------
 # b3lyp/gen opt freq CPHF(Grid=OneStep)
 ---------------------------------------

 ---------------------
 CH3COO, B3LYP/pcseg-2
 ---------------------
 Symbolic Z-matrix:
 Charge =  0 Multiplicity = 2

 SCF Done:  E(UB3LYP) =  -228.510879532     A.U. after   18 cycles
 Optimization completed.
    -- Stationary point found.
 Normal termination of Gaussian 16 at Sat Sep 30 03:26:01 2023.

 ------------------------------------------------------------------
 #N Geom=AllCheck Guess=TCheck SCRF=Check GenChk UB3LYP/ChkBas Freq
 ------------------------------------------------------------------

 Structure from the checkpoint file:  "acetoxyl.chk"
 ---------------------
 CH3COO, B3LYP/pcseg-2
 ---------------------
 Charge =  0 Multiplicity = 2

 SCF Done:  E(UB3LYP) =  -228.510879532     A.U. after    1 cycles

  Exact polarizability:  33.329   0.003  48.963  -0.207   0.000  23.110
 Approx polarizability:  41.948  -0.001  93.329  -0.374   0.001  31.562

                      1                      2                      3
                      A                      A                      A
 Frequencies --     38.7832               396.4421               550.6820
 Red. masses --      1.0948                 3.1260                 2.7472
 Frc consts  --      0.0010                 0.2895                 0.4908
 IR Inten    --      0.0660                 4.8160                 8.8226

                      4                      5                      6
                      A                      A                      A
 Frequencies --    572.7980               902.2436               987.1197
 Red. masses --      6.8373                 5.3910                 1.7339
 Frc consts  --      1.3217                 2.5856                 0.9954
 IR Inten    --     16.7608                 6.2778                 0.2584

                      7                      8                      9
                      A                      A                      A
 Frequencies --   1058.3381              1139.8224              1391.3536
 Red. masses --      1.7839                 5.1280                 1.2481
 Frc consts  --      1.1773                 3.9253                 1.4236
 IR Inten    --     11.7252                90.8990                 8.3138

                     10                     11                     12
                      A                      A                      A
 Frequencies --   1457.0557              1466.6030              1585.7258
 Red. masses --      1.0409                 1.0611                10.5239
 Frc consts  --      1.3020                 1.3448                15.5913
 IR Inten    --     37.5644                13.3271               190.0984

                     13                     14                     15
                      A                      A                      A
 Frequencies --   3049.6447              3118.2107              3140.7869
 Red. masses --      1.0351                 1.0990                 1.1046
 Frc consts  --      5.6718                 6.2957                 6.4199
 IR Inten    --      0.2661                 0.6866                 0.0574

 - Thermochemistry -
 -------------------
 Temperature   298.150 Kelvin.  Pressure   1.00000 Atm.
 Atom     1 has atomic number  6 and mass  12.00000

 Molecular mass:    59.01330 amu.
 Principal axes and moments of inertia in atomic units:
                           1         2         3
     Eigenvalues --   134.48010 194.70857 317.99168
           X            1.00000   0.00002  -0.00085
           Y           -0.00002   1.00000  -0.00001
           Z            0.00085   0.00001   1.00000
 This molecule is an asymmetric top.
 Rotational symmetry number  1.
 Rotational temperatures (Kelvin)      0.64406     0.44484     0.27238
 Rotational constants (GHZ):          13.42014     9.26894     5.67544
 Zero-point vibrational energy     124744.2 (Joules/Mol)
                                   29.81459 (Kcal/Mol)
 Warning -- explicit consideration of   4 degrees of freedom as
           vibrations may cause significant error
 Vibrational temperatures:     55.80   570.39   792.31   824.13  1298.13
          (Kelvin)           1420.25  1522.71  1639.95  2001.85  2096.38
                             2110.11  2281.51  4387.76  4486.41  4518.89

 Zero-point correction=                           0.047513 (Hartree/Particle)
 Thermal correction to Energy=                    0.052047
 Thermal correction to Enthalpy=                  0.052991
 Thermal correction to Gibbs Free Energy=         0.019297
 Sum of electronic and zero-point Energies=           -228.463367
 Sum of electronic and thermal Energies=              -228.458833
 Sum of electronic and thermal Enthalpies=            -228.457888
 Sum of electronic and thermal Free Energies=         -228.491583

                     E (Thermal)             CV                S
                      KCal/Mol        Cal/Mol-Kelvin    Cal/Mol-Kelvin
 Total                   32.660             13.439             70.915
 Electronic               0.000              0.000              1.377
 Translational            0.889              2.981             38.146
 Rotational               0.889              2.981             23.636
 Vibrational             30.882              7.477              7.756
 Vibration     1          0.594              1.981              5.320
 Vibration     2          0.763              1.478              0.976
 Vibration     3          0.906              1.138              0.543
 Vibration     4          0.929              1.090              0.499

 Optimization completed.
    -- Stationary point found.
 Normal termination of Gaussian 16 at Sat Sep 30 03:30:29 2023.
 Gaussian 16:  ES64L-G16RevB.01 20-Dec-2017

 ---------------------------------
 # rohf/gen geom=check guess=check
 ---------------------------------

 ------------------------
 CH3COO, ROHF/cc-pVTZ-F12
 ------------------------
 Structure from the checkpoint file:  "acetoxyl.chk"
 Charge =  0 Multiplicity = 2

                         Standard orientation:
 ---------------------------------------------------------------------
 Center     Atomic      Atomic             Coordinates (Angstroms)
 Number     Number       Type             X           Y           Z
 ---------------------------------------------------------------------
      1          6           0       -1.385706    0.000036   -0.003138
      2          6           0        0.103308   -0.000132   -0.007502
      3          8           0        0.809432    1.038189    0.001471
      4          1           0       -1.762259    0.895171   -0.494731
      5          1           0       -1.762452   -0.894269   -0.496198
      6          1           0       -1.732309   -0.001015    1.031409
      7          8           0        0.809494   -1.038103    0.001449
 ---------------------------------------------------------------------

 SCF Done:  E(ROHF) =  -227.234379847     A.U. after   23 cycles

 The electronic state is 2-A.
 Alpha  occ. eigenvalues --  -20.61928 -20.61913 -11.41576 -11.26933  -1.47695
 Alpha  occ. eigenvalues --   -1.33069  -1.04815  -0.78561  -0.69552  -0.67624
 Alpha  occ. eigenvalues --   -0.66558  -0.59633  -0.58443  -0.49890  -0.45154
 Alpha  occ. eigenvalues --   -0.18047
 Alpha virt. eigenvalues --    0.03796   0.06495   0.06590   0.06701   0.09202
 Alpha virt. eigenvalues --    0.09266   0.09485   0.13662   0.16362   0.16659
 Alpha virt. eigenvalues --    0.17377   0.19625   0.22009   0.22196   0.22824

 Mulliken charges and spin densities:
               1          2
     1  C   -0.189116   0.001568
     2  C    0.728915   0.027222
     3  O   -0.442254   0.484451
     4  H    0.116934   0.000946
     5  H    0.116814   0.000938
     6  H    0.110579   0.000005
     7  O   -0.441872   0.484870
 Sum of Mulliken charges =  -0.00000   1.00000

 Dipole moment (field-independent basis, Debye):
    X=             -3.7638    Y=             -0.0026    Z=              0.0095  Tot=              3.7638
 Quadrupole moment (field-independent basis, Debye-Ang):
   XX=            -23.2431   YY=            -25.8242   ZZ=            -22.0580
   XY=             -0.0018   XZ=             -0.0833   YZ=             -0.0005

 Normal termination of Gaussian 16 at Sat Sep 30 03:32:42 2023.
