 Gaussian 16, Revision B.01,
 Gaussian 16:  ES64L-G16RevB.01 20-Dec-2017

 -------------------------------
 # b3lyp/gen opt freq symm=loose
 -------------------------------

 ----------------------
 acetone, B3LYP/pcseg-2
 ----------------------
 Symbolic Z-matrix:
 Charge =  0 Multiplicity = 1

 SCF Done:  E(RB3LYP) =  -193.240258498     A.U. after   12 cycles
 Optimization completed.
    -- Stationary point found.
 Normal termination of Gaussian 16 at Thu Jun 16 10:59:47 2022.

 ------------------------------------------------------------------
 #N Geom=AllCheck Guess=TCheck SCRF=Check GenChk RB3LYP/ChkBas Freq
 ------------------------------------------------------------------

 Structure from the checkpoint file:  "/wrk/irikura/Gau-17908.chk"
 ----------------------
 acetone, B3LYP/pcseg-2
 ----------------------
 Charge =  0 Multiplicity = 1

                         Standard orientation:
 ---------------------------------------------------------------------
 Center     Atomic      Atomic             Coordinates (Angstroms)
 Number     Number       Type             X           Y           Z
 ---------------------------------------------------------------------
      1          6           0        0.000000    0.000000    0.185066
      2          8           0        0.000000    0.000000    1.394180
      3          6           0       -0.000000    1.287729   -0.611455
      4          6           0       -0.000000   -1.287729   -0.611455
      5          1           0        0.000000    2.142400    0.059320
      6          1           0       -0.000000   -2.142400    0.059320
      7          1           0       -0.876769    1.329449   -1.261254
      8          1           0        0.876769    1.329449   -1.261254
      9          1           0        0.876769   -1.329449   -1.261254
     10          1           0       -0.876769   -1.329449   -1.261254
 ---------------------------------------------------------------------

 SCF Done:  E(RB3LYP) =  -193.240258498     A.U. after    1 cycles

 The electronic state is 1-A1.
 Alpha  occ. eigenvalues --  -19.11524 -10.26771 -10.17993 -10.17992  -1.04908
 Alpha  occ. eigenvalues --   -0.77660  -0.71818  -0.53952  -0.46933  -0.46869
 Alpha  occ. eigenvalues --   -0.45946  -0.41150  -0.40462  -0.38805  -0.36049
 Alpha  occ. eigenvalues --   -0.25831
 Alpha virt. eigenvalues --   -0.02567   0.00359   0.04676   0.06064   0.06837
 Alpha virt. eigenvalues --    0.09104   0.10072   0.10100   0.12907   0.16344
 Alpha virt. eigenvalues --    0.17112   0.17234   0.18002   0.24270   0.24337

 Mulliken charges:
               1
     1  C    0.258273
     2  O   -0.392665
     3  C   -0.057948
     4  C   -0.057948
     5  H    0.063328
     6  H    0.063328
     7  H    0.030908
     8  H    0.030908
     9  H    0.030908
    10  H    0.030908
 Sum of Mulliken charges =  -0.00000

 Dipole moment (field-independent basis, Debye):
    X=              0.0000    Y=             -0.0000    Z=             -3.0812  Tot=              3.0812
 Quadrupole moment (field-independent basis, Debye-Ang):
   XX=            -24.3972   YY=            -23.8926   ZZ=            -29.3818
   XY=              0.0000   XZ=             -0.0000   YZ=              0.0000

  Exact polarizability:  32.389   0.000  44.045  -0.000  -0.000  45.349
 Approx polarizability:  46.408   0.000  52.403  -0.000  -0.000  68.345

                      1                      2                      3
                     A2                     B1                     A1
 Frequencies --     24.4883               130.0391               380.6951
 Red. masses --      1.0171                 1.1265                 2.1911
 Frc consts  --      0.0004                 0.0112                 0.1871
 IR Inten    --      0.0000                 0.0544                 1.5400

                      4                      5                      6
                     B1                     B2                     A1
 Frequencies --    489.9783               536.3031               782.8435
 Red. masses --      1.9792                 3.5990                 3.6661
 Frc consts  --      0.2800                 0.6099                 1.3237
 IR Inten    --      0.6733                14.3455                 1.8537

                      7                      8                      9
                     A2                     B2                     A1
 Frequencies --    884.4169               886.3278              1085.1947
 Red. masses --      1.2107                 1.5705                 1.5542
 Frc consts  --      0.5580                 0.7269                 1.0784
 IR Inten    --      0.0000                 9.9557                 0.0136

                     10                     11                     12
                     B1                     B2                     B2
 Frequencies --   1119.9818              1234.2590              1386.8764
 Red. masses --      1.9874                 2.8429                 1.3953
 Frc consts  --      1.4688                 2.5516                 1.5812
 IR Inten    --      2.5558                76.2929                55.1653

                     13                     14                     15
                     A1                     B2                     A2
 Frequencies --   1387.0281              1459.5894              1465.5175
 Red. masses --      1.2242                 1.0428                 1.0518
 Frc consts  --      1.3876                 1.3089                 1.3309
 IR Inten    --     20.8352                 0.7753                 0.0000

                     16                     17                     18
                     A1                     B1                     A1
 Frequencies --   1470.1204              1487.1689              1784.3148
 Red. masses --      1.0679                 1.0449                 9.6257
 Frc consts  --      1.3598                 1.3615                18.0562
 IR Inten    --     30.7929                21.2878               194.9379

                     19                     20                     21
                     B2                     A1                     A2
 Frequencies --   3029.7180              3036.8889              3083.1808
 Red. masses --      1.0372                 1.0371                 1.0984
 Frc consts  --      5.6092                 5.6353                 6.1521
 IR Inten    --      1.0861                 6.8155                 0.0000

                     22                     23                     24
                     B1                     B2                     A1
 Frequencies --   3090.5521              3143.6672              3144.6823
 Red. masses --      1.0986                 1.1015                 1.1020
 Frc consts  --      6.1826                 6.4138                 6.4210
 IR Inten    --     17.0191                11.8315                 6.4014

 - Thermochemistry -
 -------------------
 Temperature   298.150 Kelvin.  Pressure   1.00000 Atm.
 Atom     1 has atomic number  6 and mass  12.00000

 Molecular mass:    58.04186 amu.
 Principal axes and moments of inertia in atomic units:
                           1         2         3
     Eigenvalues --   177.06208 211.66951 366.59845
           X            0.00000   0.00000   1.00000
           Y            1.00000   0.00000  -0.00000
           Z            0.00000   1.00000   0.00000
 This molecule is an asymmetric top.
 Rotational symmetry number  2.
 Rotational temperatures (Kelvin)      0.48917     0.40919     0.23626
 Rotational constants (GHZ):          10.19270     8.52622     4.92294
 Zero-point vibrational energy     218461.0 (Joules/Mol)
                                   52.21344 (Kcal/Mol)
 Warning -- explicit consideration of   5 degrees of freedom as
           vibrations may cause significant error
 Vibrational temperatures:     35.23   187.10   547.74   704.97   771.62
          (Kelvin)           1126.34  1272.48  1275.23  1561.35  1611.40
                             1775.82  1995.41  1995.62  2100.02  2108.55
                             2115.18  2139.70  2567.23  4359.09  4369.41
                             4436.01  4446.62  4523.04  4524.50

 Zero-point correction=                           0.083207 (Hartree/Particle)
 Thermal correction to Energy=                    0.088668
 Thermal correction to Enthalpy=                  0.089612
 Thermal correction to Gibbs Free Energy=         0.054882
 Sum of electronic and zero-point Energies=           -193.157051
 Sum of electronic and thermal Energies=              -193.151590
 Sum of electronic and thermal Enthalpies=            -193.150646
 Sum of electronic and thermal Free Energies=         -193.185376

                     E (Thermal)             CV                S
                      KCal/Mol        Cal/Mol-Kelvin    Cal/Mol-Kelvin
 Total                   55.640             16.864             73.096
 Electronic               0.000              0.000              0.000
 Translational            0.889              2.981             38.096
 Rotational               0.889              2.981             22.756
 Vibrational             53.863             10.902             12.243
 Vibration     1          0.593              1.985              6.232
 Vibration     2          0.612              1.923              2.945
 Vibration     3          0.750              1.511              1.036
 Vibration     4          0.846              1.272              0.684
 Vibration     5          0.891              1.170              0.573

 Optimization completed.
    -- Stationary point found.
 Normal termination of Gaussian 16 at Thu Jun 16 11:00:30 2022.
