 Gaussian 16, Revision B.01,
 Gaussian 16:  ES64L-G16RevB.01 20-Dec-2017

 --------------------
 # b3lyp/gen opt freq
 --------------------

 ---------------------
 CH3COO, B3LYP/pcseg-2
 ---------------------
 Symbolic Z-matrix:
 Charge =  0 Multiplicity = 2

 SCF Done:  E(UB3LYP) =  -228.508384074     A.U. after   20 cycles
 SCF Done:  E(UB3LYP) =  -228.510864695     A.U. after   17 cycles
 SCF Done:  E(UB3LYP) =  -228.510855084     A.U. after   12 cycles
 SCF Done:  E(UB3LYP) =  -228.510866792     A.U. after   11 cycles
 SCF Done:  E(UB3LYP) =  -228.510867074     A.U. after   11 cycles
 SCF Done:  E(UB3LYP) =  -228.510867787     A.U. after   14 cycles
 SCF Done:  E(UB3LYP) =  -228.510868997     A.U. after   16 cycles
 SCF Done:  E(UB3LYP) =  -228.510870679     A.U. after   16 cycles
 SCF Done:  E(UB3LYP) =  -228.510872971     A.U. after   16 cycles
 SCF Done:  E(UB3LYP) =  -228.510875222     A.U. after   16 cycles
 SCF Done:  E(UB3LYP) =  -228.510877598     A.U. after   14 cycles
 SCF Done:  E(UB3LYP) =  -228.510879333     A.U. after   14 cycles
 SCF Done:  E(UB3LYP) =  -228.510879488     A.U. after   14 cycles
 SCF Done:  E(UB3LYP) =  -228.510879532     A.U. after   10 cycles
 Optimization completed.
    -- Stationary point found.
 Normal termination of Gaussian 16 at Sat Jun 18 11:16:29 2022.

 ------------------------------------------------------------------
 #N Geom=AllCheck Guess=TCheck SCRF=Check GenChk UB3LYP/ChkBas Freq
 ------------------------------------------------------------------

 Structure from the checkpoint file:  "/wrk/irikura/Gau-27594.chk"
 ---------------------
 CH3COO, B3LYP/pcseg-2
 ---------------------
 Charge =  0 Multiplicity = 2

                         Standard orientation:
 ---------------------------------------------------------------------
 Center     Atomic      Atomic             Coordinates (Angstroms)
 Number     Number       Type             X           Y           Z
 ---------------------------------------------------------------------
      1          6           0       -1.385706    0.000036   -0.003138
      2          6           0        0.103308   -0.000132   -0.007502
      3          8           0        0.809432    1.038189    0.001471
      4          1           0       -1.762259    0.895171   -0.494731
      5          1           0       -1.762452   -0.894269   -0.496198
      6          1           0       -1.732309   -0.001015    1.031409
      7          8           0        0.809494   -1.038103    0.001449
 ---------------------------------------------------------------------

 SCF Done:  E(UB3LYP) =  -228.510879532     A.U. after    1 cycles

 The electronic state is 2-A.
 Alpha  occ. eigenvalues --  -19.19086 -19.19077 -10.33418 -10.21181  -1.15014
 Alpha  occ. eigenvalues --   -1.03305  -0.78610  -0.57704  -0.52968  -0.50783
 Alpha  occ. eigenvalues --   -0.50520  -0.44176  -0.42772  -0.36902  -0.35219
 Alpha  occ. eigenvalues --   -0.34641
 Alpha virt. eigenvalues --   -0.02659   0.00466   0.06029   0.06621   0.08941
 Alpha virt. eigenvalues --    0.12567   0.13809   0.15736   0.17276   0.18831
 Alpha virt. eigenvalues --    0.25908   0.29626   0.30828   0.31643   0.34237

  Beta  occ. eigenvalues --  -19.17551 -19.17545 -10.33535 -10.21185  -1.12215
  Beta  occ. eigenvalues --   -0.99685  -0.78325  -0.56414  -0.50150  -0.49522
  Beta  occ. eigenvalues --   -0.49131  -0.43502  -0.42311  -0.32984  -0.31179
  Beta virt. eigenvalues --   -0.19318  -0.02332   0.00518   0.06067   0.06682
  Beta virt. eigenvalues --    0.09055   0.12879   0.14470   0.15743   0.17369
  Beta virt. eigenvalues --    0.18825   0.26193   0.29820   0.30947   0.31648

 Mulliken charges and spin densities:
               1          2
     1  C   -0.074137   0.001327
     2  C    0.508068  -0.073263
     3  O   -0.309477   0.533903
     4  H    0.061110   0.002912
     5  H    0.061103   0.002915
     6  H    0.062916  -0.000733
     7  O   -0.309583   0.532939
 Sum of Mulliken charges =  -0.00000   1.00000

 Dipole moment (field-independent basis, Debye):
    X=             -3.3918    Y=              0.0005    Z=              0.0197  Tot=              3.3919
 Quadrupole moment (field-independent basis, Debye-Ang):
   XX=            -23.2256   YY=            -25.6722   ZZ=            -22.2207
   XY=              0.0008   XZ=             -0.0671   YZ=             -0.0004

  Exact polarizability:  33.329   0.003  48.962  -0.207   0.000  23.110
 Approx polarizability:  41.948  -0.001  93.329  -0.374   0.001  31.562

                      1                      2                      3
                      A                      A                      A
 Frequencies --     38.7818               396.4413               550.6822
 Red. masses --      1.0948                 3.1260                 2.7472
 Frc consts  --      0.0010                 0.2895                 0.4908
 IR Inten    --      0.0660                 4.8150                 8.8225

                      4                      5                      6
                      A                      A                      A
 Frequencies --    572.7967               902.2432               987.1141
 Red. masses --      6.8371                 5.3910                 1.7338
 Frc consts  --      1.3217                 2.5856                 0.9954
 IR Inten    --     16.7609                 6.2778                 0.2590

                      7                      8                      9
                      A                      A                      A
 Frequencies --   1058.3388              1139.8500              1391.3544
 Red. masses --      1.7840                 5.1283                 1.2481
 Frc consts  --      1.1773                 3.9257                 1.4236
 IR Inten    --     11.7251                90.8593                 8.3134

                     10                     11                     12
                      A                      A                      A
 Frequencies --   1457.0566              1466.6004              1585.7217
 Red. masses --      1.0409                 1.0611                10.5230
 Frc consts  --      1.3020                 1.3448                15.5899
 IR Inten    --     37.5595                13.3287               190.0933

                     13                     14                     15
                      A                      A                      A
 Frequencies --   3049.6458              3118.2123              3140.7855
 Red. masses --      1.0351                 1.0990                 1.1046
 Frc consts  --      5.6718                 6.2957                 6.4199
 IR Inten    --      0.2662                 0.6861                 0.0576

 - Thermochemistry -
 -------------------
 Temperature   298.150 Kelvin.  Pressure   1.00000 Atm.
 Atom     1 has atomic number  6 and mass  12.00000

 Molecular mass:    59.01330 amu.
 Principal axes and moments of inertia in atomic units:
                           1         2         3
     Eigenvalues --   134.48013 194.70862 317.99175
           X            1.00000   0.00002  -0.00085
           Y           -0.00002   1.00000  -0.00001
           Z            0.00085   0.00001   1.00000
 This molecule is an asymmetric top.
 Rotational symmetry number  1.
 Rotational temperatures (Kelvin)      0.64406     0.44484     0.27238
 Rotational constants (GHZ):          13.42013     9.26893     5.67543
 Zero-point vibrational energy     124744.3 (Joules/Mol)
                                   29.81461 (Kcal/Mol)
 Warning -- explicit consideration of   4 degrees of freedom as
           vibrations may cause significant error
 Vibrational temperatures:     55.80   570.39   792.31   824.13  1298.13
          (Kelvin)           1420.24  1522.71  1639.99  2001.85  2096.38
                             2110.11  2281.50  4387.76  4486.41  4518.89

 Zero-point correction=                           0.047513 (Hartree/Particle)
 Thermal correction to Energy=                    0.052047
 Thermal correction to Enthalpy=                  0.052991
 Thermal correction to Gibbs Free Energy=         0.019297
 Sum of electronic and zero-point Energies=           -228.463367
 Sum of electronic and thermal Energies=              -228.458833
 Sum of electronic and thermal Enthalpies=            -228.457888
 Sum of electronic and thermal Free Energies=         -228.491583

                     E (Thermal)             CV                S
                      KCal/Mol        Cal/Mol-Kelvin    Cal/Mol-Kelvin
 Total                   32.660             13.439             70.915
 Electronic               0.000              0.000              1.377
 Translational            0.889              2.981             38.146
 Rotational               0.889              2.981             23.636
 Vibrational             30.883              7.477              7.756
 Vibration     1          0.594              1.981              5.320
 Vibration     2          0.763              1.478              0.976
 Vibration     3          0.906              1.138              0.543
 Vibration     4          0.929              1.090              0.499

 Optimization completed.
    -- Stationary point found.
 Normal termination of Gaussian 16 at Sat Jun 18 11:17:43 2022.
