 Gaussian 16, Revision B.01,
 Gaussian 16:  ES64L-G16RevB.01 20-Dec-2017

 --------------------
 # b3lyp/gen opt freq
 --------------------

 -----------------------
 acetonyl, B3LYP/pcseg-2
 -----------------------
 Symbolic Z-matrix:
 Charge =  0 Multiplicity = 2

 SCF Done:  E(UB3LYP) =  -192.578139178     A.U. after   16 cycles
 SCF Done:  E(UB3LYP) =  -192.578211773     A.U. after   10 cycles
 SCF Done:  E(UB3LYP) =  -192.578213529     A.U. after    8 cycles
 SCF Done:  E(UB3LYP) =  -192.578213951     A.U. after    8 cycles
 Optimization completed.
    -- Stationary point found.
 Normal termination of Gaussian 16 at Thu Jun 16 12:08:20 2022.

 ------------------------------------------------------------------
 #N Geom=AllCheck Guess=TCheck SCRF=Check GenChk UB3LYP/ChkBas Freq
 ------------------------------------------------------------------

 Structure from the checkpoint file:  "/wrk/irikura/Gau-25866.chk"
 -----------------------
 acetonyl, B3LYP/pcseg-2
 -----------------------
 Charge =  0 Multiplicity = 2

                         Standard orientation:
 ---------------------------------------------------------------------
 Center     Atomic      Atomic             Coordinates (Angstroms)
 Number     Number       Type             X           Y           Z
 ---------------------------------------------------------------------
      1          6           0        0.000000    0.145448    0.000000
      2          8           0        0.476109    1.282290    0.000000
      3          6           0       -1.423040   -0.044052    0.000000
      4          6           0        0.890394   -1.081713    0.000000
      5          1           0       -2.062574    0.826479    0.000000
      6          1           0       -1.870228   -1.028492    0.000000
      7          1           0        1.933099   -0.776766    0.000000
      8          1           0        0.693354   -1.698819    0.878716
      9          1           0        0.693354   -1.698819   -0.878716
 ---------------------------------------------------------------------

 SCF Done:  E(UB3LYP) =  -192.578213951     A.U. after    1 cycles

 The electronic state is 2-A".
 Alpha  occ. eigenvalues --  -19.12200 -10.26213 -10.21687 -10.17944  -1.04769
 Alpha  occ. eigenvalues --   -0.78342  -0.71857  -0.54961  -0.48505  -0.47081
 Alpha  occ. eigenvalues --   -0.45552  -0.41214  -0.39860  -0.38515  -0.26985
 Alpha  occ. eigenvalues --   -0.26972
 Alpha virt. eigenvalues --   -0.00384   0.00962   0.04585   0.06304   0.07871
 Alpha virt. eigenvalues --    0.08290   0.10217   0.12940   0.15914   0.17328
 Alpha virt. eigenvalues --    0.18715   0.21522   0.23009   0.24750   0.27647

  Beta  occ. eigenvalues --  -19.11384 -10.26417 -10.20469 -10.17935  -1.03390
  Beta  occ. eigenvalues --   -0.76936  -0.70193  -0.54204  -0.47969  -0.46509
  Beta  occ. eigenvalues --   -0.44691  -0.40693  -0.39626  -0.35760  -0.26161
  Beta virt. eigenvalues --   -0.13705   0.01068   0.01672   0.04775   0.06387
  Beta virt. eigenvalues --    0.08371   0.08438   0.10251   0.12984   0.15957
  Beta virt. eigenvalues --    0.18006   0.20629   0.21919   0.23781   0.25148

 Mulliken charges and spin densities:
               1          2
     1  C    0.282265  -0.111298
     2  O   -0.401975   0.291249
     3  C   -0.098435   0.885093
     4  C   -0.072848   0.003006
     5  H    0.084442  -0.031855
     6  H    0.069884  -0.029865
     7  H    0.063755  -0.001856
     8  H    0.036456  -0.002237
     9  H    0.036456  -0.002237
 Sum of Mulliken charges =  -0.00000   1.00000

 Dipole moment (field-independent basis, Debye):
    X=             -1.4495    Y=             -2.8114    Z=             -0.0000  Tot=              3.1631
 Quadrupole moment (field-independent basis, Debye-Ang):
   XX=            -22.8328   YY=            -27.3543   ZZ=            -24.8141
   XY=             -1.7599   XZ=             -0.0000   YZ=              0.0000

  Exact polarizability:  46.535   1.732  44.060   0.000   0.000  28.784
 Approx polarizability:  60.469   9.286  63.791  -0.000   0.000  40.488

                      1                      2                      3
                     A"                     A"                     A'
 Frequencies --     29.2302               356.2768               387.1615
 Red. masses --      1.0693                 1.0451                 2.1411
 Frc consts  --      0.0005                 0.0782                 0.1891
 IR Inten    --      0.0485                 0.1130                 2.4419

                      4                      5                      6
                     A"                     A'                     A"
 Frequencies --    506.8939               527.4525               759.8679
 Red. masses --      2.1822                 3.5089                 1.3894
 Frc consts  --      0.3304                 0.5752                 0.4727
 IR Inten    --      0.9409                13.8139                30.5386

                      7                      8                      9
                     A'                     A'                     A"
 Frequencies --    817.7664               927.7474              1027.1304
 Red. masses --      3.1493                 1.6032                 1.6999
 Frc consts  --      1.2409                 0.8130                 1.0566
 IR Inten    --      3.3820                 5.5666                 5.3253

                     10                     11                     12
                     A'                     A'                     A'
 Frequencies --   1067.6182              1268.6743              1391.9915
 Red. masses --      1.6749                 2.8673                 1.3105
 Frc consts  --      1.1248                 2.7191                 1.4961
 IR Inten    --      5.5434                56.6890                27.8267

                     13                     14                     15
                     A'                     A'                     A"
 Frequencies --   1458.3156              1475.1362              1477.4930
 Red. masses --      1.1776                 1.1533                 1.0470
 Frc consts  --      1.4755                 1.4786                 1.3467
 IR Inten    --     32.0952                14.2460                 9.1820

                     16                     17                     18
                     A'                     A'                     A"
 Frequencies --   1582.2433              3035.2204              3089.4749
 Red. masses --      7.7358                 1.0376                 1.0993
 Frc consts  --     11.4104                 5.6318                 6.1823
 IR Inten    --     78.0848                 3.6287                 9.0184

                     19                     20                     21
                     A'                     A'                     A'
 Frequencies --   3144.2265              3146.7929              3259.9967
 Red. masses --      1.0947                 1.0574                 1.1196
 Frc consts  --      6.3762                 6.1690                 7.0104
 IR Inten    --      3.4364                 5.6178                 2.6717

 - Thermochemistry -
 -------------------
 Temperature   298.150 Kelvin.  Pressure   1.00000 Atm.
 Atom     1 has atomic number  6 and mass  12.00000

 Molecular mass:    57.03404 amu.
 Principal axes and moments of inertia in atomic units:
                           1         2         3
     Eigenvalues --   164.15413 198.53149 351.56984
           X            0.76064   0.64918   0.00000
           Y           -0.64918   0.76064   0.00000
           Z            0.00000  -0.00000   1.00000
 This molecule is an asymmetric top.
 Rotational symmetry number  1.
 Rotational temperatures (Kelvin)      0.52764     0.43627     0.24636
 Rotational constants (GHZ):          10.99419     9.09045     5.13338
 Zero-point vibrational energy     183846.4 (Joules/Mol)
                                   43.94033 (Kcal/Mol)
 Warning -- explicit consideration of   5 degrees of freedom as
           vibrations may cause significant error
 Vibrational temperatures:     42.06   512.60   557.04   729.31   758.89
          (Kelvin)           1093.28  1176.58  1334.82  1477.81  1536.06
                             1825.34  2002.77  2098.19  2122.39  2125.78
                             2276.50  4367.01  4445.07  4523.84  4527.53
                             4690.41

 Zero-point correction=                           0.070023 (Hartree/Particle)
 Thermal correction to Energy=                    0.075150
 Thermal correction to Enthalpy=                  0.076094
 Thermal correction to Gibbs Free Energy=         0.041194
 Sum of electronic and zero-point Energies=           -192.508191
 Sum of electronic and thermal Energies=              -192.503064
 Sum of electronic and thermal Enthalpies=            -192.502120
 Sum of electronic and thermal Free Energies=         -192.537020

                     E (Thermal)             CV                S
                      KCal/Mol        Cal/Mol-Kelvin    Cal/Mol-Kelvin
 Total                   47.157             16.470             73.453
 Electronic               0.000              0.000              1.377
 Translational            0.889              2.981             38.044
 Rotational               0.889              2.981             23.953
 Vibrational             45.380             10.508             10.078
 Vibration     1          0.593              1.984              5.881
 Vibration     2          0.732              1.562              1.138
 Vibration     3          0.756              1.498              1.011
 Vibration     4          0.862              1.235              0.641
 Vibration     5          0.882              1.189              0.593

 Optimization completed.
    -- Stationary point found.
 Normal termination of Gaussian 16 at Thu Jun 16 12:09:53 2022.
