 Gaussian 16, Revision B.01,

 ---------------------------------------
 # b3lyp/gen opt freq CPHF(Grid=OneStep)
 ---------------------------------------

 ----------------------
 acetone, B3LYP/pcseg-2
 ----------------------
 Symbolic Z-matrix:
 Charge =  0 Multiplicity = 1

 SCF Done:  E(RB3LYP) =  -193.240258498     A.U. after   12 cycles
 Optimization completed.
    -- Stationary point found.
 Normal termination of Gaussian 16 at Thu Sep 28 15:35:44 2023.

 ------------------------------------------------------------------
 #N Geom=AllCheck Guess=TCheck SCRF=Check GenChk RB3LYP/ChkBas Freq
 ------------------------------------------------------------------

 Structure from the checkpoint file:  "acetone.chk"
 ----------------------
 acetone, B3LYP/pcseg-2
 ----------------------
 Charge =  0 Multiplicity = 1

 SCF Done:  E(RB3LYP) =  -193.240258498     A.U. after    1 cycles

  Exact polarizability:  32.389   0.000  44.045  -0.000  -0.000  45.349
 Approx polarizability:  46.408   0.000  52.403  -0.000  -0.000  68.345

                      1                      2                      3
                     A2                     B1                     A1
 Frequencies --     24.5041               130.0418               380.6960
 Red. masses --      1.0171                 1.1265                 2.1911
 Frc consts  --      0.0004                 0.0112                 0.1871
 IR Inten    --      0.0000                 0.0544                 1.5400

                      4                      5                      6
                     B1                     B2                     A1
 Frequencies --    489.9785               536.3057               782.8480
 Red. masses --      1.9792                 3.5990                 3.6661
 Frc consts  --      0.2800                 0.6099                 1.3237
 IR Inten    --      0.6733                14.3453                 1.8540

                      7                      8                      9
                     A2                     B2                     A1
 Frequencies --    884.4143               886.3209              1085.1945
 Red. masses --      1.2107                 1.5705                 1.5542
 Frc consts  --      0.5580                 0.7269                 1.0784
 IR Inten    --      0.0000                 9.9533                 0.0135

                     10                     11                     12
                     B1                     B2                     B2
 Frequencies --   1119.9824              1234.2572              1386.8744
 Red. masses --      1.9874                 2.8428                 1.3953
 Frc consts  --      1.4688                 2.5515                 1.5812
 IR Inten    --      2.5558                76.2853                55.1732

                     13                     14                     15
                     A1                     B2                     A2
 Frequencies --   1387.0293              1459.5861              1465.5070
 Red. masses --      1.2242                 1.0428                 1.0518
 Frc consts  --      1.3876                 1.3089                 1.3309
 IR Inten    --     20.8345                 0.7758                 0.0000

                     16                     17                     18
                     A1                     B1                     A1
 Frequencies --   1470.1196              1487.1709              1784.3044
 Red. masses --      1.0679                 1.0449                 9.6253
 Frc consts  --      1.3598                 1.3615                18.0551
 IR Inten    --     30.7929                21.2880               194.9335

                     19                     20                     21
                     B2                     A1                     A2
 Frequencies --   3029.7085              3036.8903              3083.1649
 Red. masses --      1.0372                 1.0371                 1.0984
 Frc consts  --      5.6092                 5.6353                 6.1521
 IR Inten    --      1.0839                 6.8150                 0.0000

                     22                     23                     24
                     B1                     B2                     A1
 Frequencies --   3090.5523              3143.6621              3144.6801
 Red. masses --      1.0986                 1.1015                 1.1020
 Frc consts  --      6.1826                 6.4138                 6.4210
 IR Inten    --     17.0198                11.8322                 6.4038

 - Thermochemistry -
 -------------------
 Temperature   298.150 Kelvin.  Pressure   1.00000 Atm.
 Atom     1 has atomic number  6 and mass  12.00000

 Molecular mass:    58.04186 amu.
 Principal axes and moments of inertia in atomic units:
                           1         2         3
     Eigenvalues --   177.06209 211.66954 366.59847
           X            0.00000   0.00000   1.00000
           Y            1.00000   0.00000  -0.00000
           Z            0.00000   1.00000   0.00000
 This molecule is an asymmetric top.
 Rotational symmetry number  2.
 Rotational temperatures (Kelvin)      0.48917     0.40919     0.23626
 Rotational constants (GHZ):          10.19270     8.52622     4.92294
 Zero-point vibrational energy     218460.8 (Joules/Mol)
                                   52.21338 (Kcal/Mol)
 Warning -- explicit consideration of   5 degrees of freedom as
           vibrations may cause significant error
 Vibrational temperatures:     35.26   187.10   547.74   704.97   771.62
          (Kelvin)           1126.34  1272.47  1275.22  1561.35  1611.40
                             1775.82  1995.40  1995.63  2100.02  2108.54
                             2115.17  2139.71  2567.22  4359.07  4369.41
                             4435.99  4446.62  4523.03  4524.49

 Zero-point correction=                           0.083207 (Hartree/Particle)
 Thermal correction to Energy=                    0.088668
 Thermal correction to Enthalpy=                  0.089612
 Thermal correction to Gibbs Free Energy=         0.054883
 Sum of electronic and zero-point Energies=           -193.157051
 Sum of electronic and thermal Energies=              -193.151590
 Sum of electronic and thermal Enthalpies=            -193.150646
 Sum of electronic and thermal Free Energies=         -193.185376

                     E (Thermal)             CV                S
                      KCal/Mol        Cal/Mol-Kelvin    Cal/Mol-Kelvin
 Total                   55.640             16.864             73.094
 Electronic               0.000              0.000              0.000
 Translational            0.889              2.981             38.096
 Rotational               0.889              2.981             22.756
 Vibrational             53.863             10.902             12.242
 Vibration     1          0.593              1.985              6.231
 Vibration     2          0.612              1.923              2.945
 Vibration     3          0.750              1.511              1.036
 Vibration     4          0.846              1.272              0.684
 Vibration     5          0.891              1.170              0.573

 Optimization completed.
    -- Stationary point found.
 Normal termination of Gaussian 16 at Thu Sep 28 15:38:31 2023.
 Gaussian 16:  ES64L-G16RevB.01 20-Dec-2017

 ---------------------------------
 # rohf/gen geom=check guess=check
 ---------------------------------

 -------------------------
 acetone, ROHF/cc-pVTZ-F12
 -------------------------
 Structure from the checkpoint file:  "acetone.chk"
 Charge =  0 Multiplicity = 1

                         Standard orientation:
 ---------------------------------------------------------------------
 Center     Atomic      Atomic             Coordinates (Angstroms)
 Number     Number       Type             X           Y           Z
 ---------------------------------------------------------------------
      1          6           0       -0.000000   -0.000000    0.185066
      2          8           0       -0.000000   -0.000000    1.394180
      3          6           0        0.000000    1.287729   -0.611455
      4          6           0       -0.000000   -1.287729   -0.611455
      5          1           0       -0.000000    2.142400    0.059320
      6          1           0       -0.000000   -2.142400    0.059320
      7          1           0       -0.876769    1.329449   -1.261254
      8          1           0        0.876769    1.329449   -1.261254
      9          1           0        0.876769   -1.329449   -1.261254
     10          1           0       -0.876769   -1.329449   -1.261254
 ---------------------------------------------------------------------

 SCF Done:  E(ROHF) =  -192.047479651     A.U. after   11 cycles

 The electronic state is 1-A1.
 Alpha  occ. eigenvalues --  -20.54299 -11.33143 -11.23432 -11.23430  -1.38751
 Alpha  occ. eigenvalues --   -1.04195  -0.96817  -0.74238  -0.64643  -0.63758
 Alpha  occ. eigenvalues --   -0.62393  -0.56327  -0.56039  -0.53883  -0.49026
 Alpha  occ. eigenvalues --   -0.41411
 Alpha virt. eigenvalues --    0.04362   0.04937   0.06589   0.07162   0.08396
 Alpha virt. eigenvalues --    0.08932   0.09409   0.10520   0.10607   0.12240
 Alpha virt. eigenvalues --    0.15043   0.16923   0.17314   0.20603   0.21924

 Mulliken charges and spin densities:
               1          2
     1  C    0.628350   0.000000
     2  O   -0.637625   0.000000
     3  C   -0.343383   0.000000
     4  C   -0.343383   0.000000
     5  H    0.146013   0.000000
     6  H    0.146013   0.000000
     7  H    0.101004   0.000000
     8  H    0.101004   0.000000
     9  H    0.101004   0.000000
    10  H    0.101004   0.000000
 Sum of Mulliken charges =  -0.00000   0.00000

 Dipole moment (field-independent basis, Debye):
    X=             -0.0000    Y=              0.0000    Z=             -3.4011  Tot=              3.4011
 Quadrupole moment (field-independent basis, Debye-Ang):
   XX=            -24.3252   YY=            -23.4798   ZZ=            -29.5934
   XY=              0.0000   XZ=              0.0000   YZ=             -0.0000

 Normal termination of Gaussian 16 at Thu Sep 28 15:39:19 2023.
