 Gaussian 16, Revision B.01,
 Gaussian 16:  ES64L-G16RevB.01 20-Dec-2017

 --------------------
 # b3lyp/gen opt freq
 --------------------

 ------------------------
 acetamide, B3LYP/pcseg-2
 ------------------------
 Symbolic Z-matrix:
 Charge =  0 Multiplicity = 1

 SCF Done:  E(RB3LYP) =  -209.311985226     A.U. after   13 cycles
 SCF Done:  E(RB3LYP) =  -209.312071570     A.U. after   10 cycles
 SCF Done:  E(RB3LYP) =  -209.312092433     A.U. after    9 cycles
 SCF Done:  E(RB3LYP) =  -209.312113354     A.U. after   10 cycles
 SCF Done:  E(RB3LYP) =  -209.312155467     A.U. after    8 cycles
 SCF Done:  E(RB3LYP) =  -209.312235696     A.U. after   10 cycles
 SCF Done:  E(RB3LYP) =  -209.312264862     A.U. after   10 cycles
 SCF Done:  E(RB3LYP) =  -209.312275308     A.U. after    9 cycles
 SCF Done:  E(RB3LYP) =  -209.312279989     A.U. after    7 cycles
 SCF Done:  E(RB3LYP) =  -209.312296315     A.U. after    9 cycles
 SCF Done:  E(RB3LYP) =  -209.312307873     A.U. after    9 cycles
 SCF Done:  E(RB3LYP) =  -209.312321084     A.U. after   11 cycles
 SCF Done:  E(RB3LYP) =  -209.312325263     A.U. after    8 cycles
 SCF Done:  E(RB3LYP) =  -209.312326934     A.U. after    9 cycles
 SCF Done:  E(RB3LYP) =  -209.312327175     A.U. after    7 cycles
 SCF Done:  E(RB3LYP) =  -209.312327287     A.U. after    7 cycles
 SCF Done:  E(RB3LYP) =  -209.312327398     A.U. after    7 cycles
 SCF Done:  E(RB3LYP) =  -209.312327432     A.U. after    7 cycles
 Optimization completed.
    -- Stationary point found.
 Normal termination of Gaussian 16 at Wed Jun 15 20:51:48 2022.

 ------------------------------------------------------------------
 #N Geom=AllCheck Guess=TCheck SCRF=Check GenChk RB3LYP/ChkBas Freq
 ------------------------------------------------------------------

 Structure from the checkpoint file:  "/wrk/irikura/Gau-16305.chk"
 ------------------------
 acetamide, B3LYP/pcseg-2
 ------------------------
 Charge =  0 Multiplicity = 1

                         Standard orientation:
 ---------------------------------------------------------------------
 Center     Atomic      Atomic             Coordinates (Angstroms)
 Number     Number       Type             X           Y           Z
 ---------------------------------------------------------------------
      1          6           0       -1.359102   -0.347220    0.000003
      2          6           0        0.075066    0.145584   -0.000073
      3          7           0        1.035853   -0.822718    0.000216
      4          8           0        0.351729    1.329178   -0.000020
      5          1           0       -1.863340    0.054162   -0.877906
      6          1           0       -1.450984   -1.432301   -0.000228
      7          1           0       -1.863046    0.053672    0.878311
      8          1           0        2.000595   -0.539472   -0.000321
      9          1           0        0.816185   -1.800643   -0.000795
 ---------------------------------------------------------------------

 SCF Done:  E(RB3LYP) =  -209.312327432     A.U. after    1 cycles

 The electronic state is 1-A.
 Alpha  occ. eigenvalues --  -19.08722 -14.34280 -10.28043 -10.18131  -1.04053
 Alpha  occ. eigenvalues --   -0.91330  -0.74623  -0.59991  -0.55047  -0.47931
 Alpha  occ. eigenvalues --   -0.45495  -0.41219  -0.40838  -0.37635  -0.28239
 Alpha  occ. eigenvalues --   -0.26200
 Alpha virt. eigenvalues --   -0.00236   0.01427   0.03766   0.04901   0.08586
 Alpha virt. eigenvalues --    0.08866   0.11300   0.16478   0.16549   0.16732
 Alpha virt. eigenvalues --    0.20474   0.21205   0.23928   0.28695   0.30458

 Mulliken charges:
               1
     1  C   -0.065949
     2  C    0.411142
     3  N   -0.307992
     4  O   -0.464280
     5  H    0.055622
     6  H    0.006419
     7  H    0.055627
     8  H    0.164215
     9  H    0.145197
 Sum of Mulliken charges =   0.00000

 Dipole moment (field-independent basis, Debye):
    X=             -0.1486    Y=             -3.9328    Z=             -0.0022  Tot=              3.9356
 Quadrupole moment (field-independent basis, Debye-Ang):
   XX=            -20.6782   YY=            -26.7185   ZZ=            -25.2461
   XY=             -2.3443   XZ=             -0.0032   YZ=              0.0037

  Exact polarizability:  40.924  -1.351  41.901  -0.000  -0.000  27.599
 Approx polarizability:  50.356  -2.239  63.899   0.001  -0.002  38.459

                      1                      2                      3
                      A                      A                      A
 Frequencies --     30.0389               215.3400               431.7156
 Red. masses --      1.0627                 1.2372                 2.3884
 Frc consts  --      0.0006                 0.0338                 0.2623
 IR Inten    --      3.5907               192.9534                 4.5653

                      4                      5                      6
                      A                      A                      A
 Frequencies --    524.6750               546.2962               669.9260
 Red. masses --      1.3081                 3.2907                 1.7060
 Frc consts  --      0.2122                 0.5786                 0.4511
 IR Inten    --      5.6569                13.2264                10.0529

                      7                      8                      9
                      A                      A                      A
 Frequencies --    840.3603               986.3213              1057.3452
 Red. masses --      3.1290                 1.5036                 1.7324
 Frc consts  --      1.3019                 0.8618                 1.1411
 IR Inten    --      2.5113                12.3170                 3.8467

                     10                     11                     12
                      A                      A                      A
 Frequencies --   1120.1619              1341.2231              1399.7332
 Red. masses --      1.7300                 2.7619                 1.2987
 Frc consts  --      1.2790                 2.9273                 1.4992
 IR Inten    --      0.3674               142.4578                48.8262

                     13                     14                     15
                      A                      A                      A
 Frequencies --   1473.4727              1489.8449              1621.2899
 Red. masses --      1.0447                 1.1207                 1.2370
 Frc consts  --      1.3364                 1.4657                 1.9157
 IR Inten    --      7.3885                 9.0399                96.6073

                     16                     17                     18
                      A                      A                      A
 Frequencies --   1759.7499              3050.4625              3123.0794
 Red. masses --      8.8808                 1.0349                 1.1006
 Frc consts  --     16.2033                 5.6737                 6.3246
 IR Inten    --    383.9949                 7.8167                 3.8910

                     19                     20                     21
                      A                      A                      A
 Frequencies --   3124.0403              3591.1895              3728.2923
 Red. masses --      1.1036                 1.0454                 1.1047
 Frc consts  --      6.3460                 7.9431                 9.0472
 IR Inten    --     17.3985                34.2000                38.0590

 - Thermochemistry -
 -------------------
 Temperature   298.150 Kelvin.  Pressure   1.00000 Atm.
 Atom     1 has atomic number  6 and mass  12.00000

 Molecular mass:    59.03711 amu.
 Principal axes and moments of inertia in atomic units:
                           1         2         3
     Eigenvalues --   165.59277 194.82198 349.31433
           X            0.99799  -0.06334  -0.00003
           Y            0.06334   0.99799   0.00004
           Z            0.00003  -0.00004   1.00000
 This molecule is an asymmetric top.
 Rotational symmetry number  1.
 Rotational temperatures (Kelvin)      0.52305     0.44458     0.24795
 Rotational constants (GHZ):          10.89867     9.26354     5.16652
 Zero-point vibrational energy     192147.5 (Joules/Mol)
                                   45.92436 (Kcal/Mol)
 Warning -- explicit consideration of   5 degrees of freedom as
           vibrations may cause significant error
 Vibrational temperatures:     43.22   309.83   621.14   754.89   786.00
          (Kelvin)            963.87  1209.09  1419.10  1521.28  1611.66
                             1929.72  2013.90  2120.00  2143.55  2332.67
                             2531.89  4388.94  4493.41  4494.80  5166.92
                             5364.18

 Zero-point correction=                           0.073185 (Hartree/Particle)
 Thermal correction to Energy=                    0.078427
 Thermal correction to Enthalpy=                  0.079371
 Thermal correction to Gibbs Free Energy=         0.044809
 Sum of electronic and zero-point Energies=           -209.239142
 Sum of electronic and thermal Energies=              -209.233901
 Sum of electronic and thermal Enthalpies=            -209.232956
 Sum of electronic and thermal Free Energies=         -209.267518

                     E (Thermal)             CV                S
                      KCal/Mol        Cal/Mol-Kelvin    Cal/Mol-Kelvin
 Total                   49.214             16.429             72.741
 Electronic               0.000              0.000              0.000
 Translational            0.889              2.981             38.147
 Rotational               0.889              2.981             23.937
 Vibrational             47.436             10.468             10.657
 Vibration     1          0.594              1.984              5.827
 Vibration     2          0.645              1.818              1.998
 Vibration     3          0.793              1.401              0.853
 Vibration     4          0.880              1.195              0.599
 Vibration     5          0.901              1.148              0.552

 Optimization completed.
    -- Stationary point found.
 Normal termination of Gaussian 16 at Wed Jun 15 20:53:08 2022.
