 Gaussian 16, Revision B.01,

 ---------------------------------------
 # b3lyp/gen opt freq CPHF(Grid=OneStep)
 ---------------------------------------

 ------------------------
 acetamide, B3LYP/pcseg-2
 ------------------------
 Symbolic Z-matrix:
 Charge =  0 Multiplicity = 1

 SCF Done:  E(RB3LYP) =  -209.312327432     A.U. after   13 cycles
 Optimization completed.
    -- Stationary point found.
 Normal termination of Gaussian 16 at Sat Sep 30 21:07:22 2023.

 ------------------------------------------------------------------
 #N Geom=AllCheck Guess=TCheck SCRF=Check GenChk RB3LYP/ChkBas Freq
 ------------------------------------------------------------------

 Structure from the checkpoint file:  "AcNH2.chk"
 ------------------------
 acetamide, B3LYP/pcseg-2
 ------------------------
 Charge =  0 Multiplicity = 1

 SCF Done:  E(RB3LYP) =  -209.312327432     A.U. after    1 cycles

  Exact polarizability:  40.924  -1.351  41.900  -0.000  -0.000  27.599
 Approx polarizability:  50.356  -2.239  63.899   0.001  -0.002  38.459

                      1                      2                      3
                      A                      A                      A
 Frequencies --     30.0547               215.3383               431.7160
 Red. masses --      1.0627                 1.2372                 2.3883
 Frc consts  --      0.0006                 0.0338                 0.2623
 IR Inten    --      3.5900               192.9633                 4.5661

                      4                      5                      6
                      A                      A                      A
 Frequencies --    524.6678               546.2925               669.9220
 Red. masses --      1.3081                 3.2906                 1.7061
 Frc consts  --      0.2122                 0.5786                 0.4511
 IR Inten    --      5.6567                13.2260                10.0519

                      7                      8                      9
                      A                      A                      A
 Frequencies --    840.3613               986.3149              1057.3456
 Red. masses --      3.1289                 1.5036                 1.7324
 Frc consts  --      1.3019                 0.8618                 1.1411
 IR Inten    --      2.5110                12.3152                 3.8476

                     10                     11                     12
                      A                      A                      A
 Frequencies --   1120.1602              1341.2165              1399.7328
 Red. masses --      1.7300                 2.7618                 1.2987
 Frc consts  --      1.2790                 2.9271                 1.4992
 IR Inten    --      0.3675               142.4421                48.8303

                     13                     14                     15
                      A                      A                      A
 Frequencies --   1473.4714              1489.8424              1621.2842
 Red. masses --      1.0447                 1.1207                 1.2370
 Frc consts  --      1.3364                 1.4657                 1.9158
 IR Inten    --      7.3884                 9.0414                96.6205

                     16                     17                     18
                      A                      A                      A
 Frequencies --   1759.7532              3050.4581              3123.0714
 Red. masses --      8.8804                 1.0349                 1.1006
 Frc consts  --     16.2027                 5.6736                 6.3245
 IR Inten    --    383.9807                 7.8141                 3.8907

                     19                     20                     21
                      A                      A                      A
 Frequencies --   3124.0353              3591.1858              3728.2840
 Red. masses --      1.1036                 1.0454                 1.1047
 Frc consts  --      6.3460                 7.9431                 9.0471
 IR Inten    --     17.4023                34.2069                38.0525

 - Thermochemistry -
 -------------------
 Temperature   298.150 Kelvin.  Pressure   1.00000 Atm.
 Atom     1 has atomic number  6 and mass  12.00000

 Molecular mass:    59.03711 amu.
 Principal axes and moments of inertia in atomic units:
                           1         2         3
     Eigenvalues --   165.59278 194.82198 349.31434
           X            0.99799  -0.06334  -0.00003
           Y            0.06334   0.99799   0.00004
           Z            0.00003  -0.00004   1.00000
 This molecule is an asymmetric top.
 Rotational symmetry number  1.
 Rotational temperatures (Kelvin)      0.52305     0.44458     0.24795
 Rotational constants (GHZ):          10.89867     9.26354     5.16652
 Zero-point vibrational energy     192147.2 (Joules/Mol)
                                   45.92429 (Kcal/Mol)
 Warning -- explicit consideration of   5 degrees of freedom as
           vibrations may cause significant error
 Vibrational temperatures:     43.24   309.82   621.14   754.88   785.99
          (Kelvin)            963.87  1209.09  1419.09  1521.28  1611.66
                             1929.71  2013.90  2120.00  2143.55  2332.67
                             2531.89  4388.93  4493.40  4494.79  5166.92
                             5364.17

 Zero-point correction=                           0.073185 (Hartree/Particle)
 Thermal correction to Energy=                    0.078427
 Thermal correction to Enthalpy=                  0.079371
 Thermal correction to Gibbs Free Energy=         0.044810
 Sum of electronic and zero-point Energies=           -209.239142
 Sum of electronic and thermal Energies=              -209.233901
 Sum of electronic and thermal Enthalpies=            -209.232957
 Sum of electronic and thermal Free Energies=         -209.267518

                     E (Thermal)             CV                S
                      KCal/Mol        Cal/Mol-Kelvin    Cal/Mol-Kelvin
 Total                   49.213             16.429             72.740
 Electronic               0.000              0.000              0.000
 Translational            0.889              2.981             38.147
 Rotational               0.889              2.981             23.937
 Vibrational             47.436             10.468             10.656
 Vibration     1          0.594              1.984              5.826
 Vibration     2          0.645              1.818              1.998
 Vibration     3          0.793              1.401              0.853
 Vibration     4          0.880              1.195              0.599
 Vibration     5          0.901              1.148              0.552

 Optimization completed.
    -- Stationary point found.
 Normal termination of Gaussian 16 at Sat Sep 30 21:11:57 2023.
 Gaussian 16:  ES64L-G16RevB.01 20-Dec-2017

 ---------------------------------
 # rohf/gen geom=check guess=check
 ---------------------------------

 ---------------------------
 acetamide, ROHF/cc-pVTZ-F12
 ---------------------------
 Structure from the checkpoint file:  "AcNH2.chk"
 Charge =  0 Multiplicity = 1

                         Standard orientation:
 ---------------------------------------------------------------------
 Center     Atomic      Atomic             Coordinates (Angstroms)
 Number     Number       Type             X           Y           Z
 ---------------------------------------------------------------------
      1          6           0       -1.359102   -0.347220    0.000003
      2          6           0        0.075066    0.145584   -0.000073
      3          7           0        1.035853   -0.822718    0.000216
      4          8           0        0.351729    1.329178   -0.000020
      5          1           0       -1.863340    0.054162   -0.877906
      6          1           0       -1.450984   -1.432301   -0.000228
      7          1           0       -1.863046    0.053672    0.878311
      8          1           0        2.000595   -0.539472   -0.000321
      9          1           0        0.816185   -1.800643   -0.000795
 ---------------------------------------------------------------------

 SCF Done:  E(ROHF) =  -208.075316509     A.U. after   11 cycles

 The electronic state is 1-A.
 Alpha  occ. eigenvalues --  -20.51339 -15.58552 -11.35284 -11.23791  -1.38018
 Alpha  occ. eigenvalues --   -1.21237  -1.00476  -0.80136  -0.72784  -0.66543
 Alpha  occ. eigenvalues --   -0.61534  -0.58748  -0.56309  -0.52568  -0.42480
 Alpha  occ. eigenvalues --   -0.41579
 Alpha virt. eigenvalues --    0.03943   0.05139   0.07279   0.07446   0.09170
 Alpha virt. eigenvalues --    0.09547   0.09693   0.11680   0.14198   0.14339
 Alpha virt. eigenvalues --    0.16999   0.17299   0.19570   0.22098   0.22399

 Mulliken charges and spin densities:
               1          2
     1  C   -0.218692   0.000000
     2  C    0.741728   0.000000
     3  N   -0.762348   0.000000
     4  O   -0.675319   0.000000
     5  H    0.112873   0.000000
     6  H    0.072716   0.000000
     7  H    0.112924   0.000000
     8  H    0.314732   0.000000
     9  H    0.301387   0.000000
 Sum of Mulliken charges =  -0.00000   0.00000

 Dipole moment (field-independent basis, Debye):
    X=             -0.3683    Y=             -4.1955    Z=             -0.0025  Tot=              4.2116
 Quadrupole moment (field-independent basis, Debye-Ang):
   XX=            -20.2823   YY=            -26.9014   ZZ=            -25.1556
   XY=             -2.3118   XZ=             -0.0034   YZ=              0.0039

 Normal termination of Gaussian 16 at Sat Sep 30 21:13:36 2023.
