 Gaussian 16, Revision B.01,
 Gaussian 16:  ES64L-G16RevB.01 20-Dec-2017

 -------------------------------
 # b3lyp/gen opt freq symm=loose
 -------------------------------

 ----------------------------
 acetoxymethyl, B3LYP/pcseg-2
 ----------------------------
 Symbolic Z-matrix:
 Charge =  0 Multiplicity = 2

 SCF Done:  E(UB3LYP) =  -267.837757636     A.U. after   17 cycles
 SCF Done:  E(UB3LYP) =  -267.837874945     A.U. after   11 cycles
 SCF Done:  E(UB3LYP) =  -267.837894694     A.U. after   10 cycles
 SCF Done:  E(UB3LYP) =  -267.837900050     A.U. after   10 cycles
 SCF Done:  E(UB3LYP) =  -267.837907976     A.U. after   11 cycles
 SCF Done:  E(UB3LYP) =  -267.837920777     A.U. after    9 cycles
 SCF Done:  E(UB3LYP) =  -267.837922965     A.U. after    9 cycles
 SCF Done:  E(UB3LYP) =  -267.837923813     A.U. after    9 cycles
 SCF Done:  E(UB3LYP) =  -267.837923868     A.U. after    7 cycles
 Optimization completed.
    -- Stationary point found.
 Normal termination of Gaussian 16 at Wed Sep 13 10:21:31 2023.

 ------------------------------------------------------------------
 #N Geom=AllCheck Guess=TCheck SCRF=Check GenChk UB3LYP/ChkBas Freq
 ------------------------------------------------------------------

 Structure from the checkpoint file:  "/wrk/irikura/Gau-448466.chk"
 ----------------------------
 acetoxymethyl, B3LYP/pcseg-2
 ----------------------------
 Charge =  0 Multiplicity = 2

                         Standard orientation:
 ---------------------------------------------------------------------
 Center     Atomic      Atomic             Coordinates (Angstroms)
 Number     Number       Type             X           Y           Z
 ---------------------------------------------------------------------
      1          6           0       -0.423019    0.190416   -0.001274
      2          8           0        0.639398   -0.681692   -0.001641
      3          8           0       -0.285943    1.381867   -0.000292
      4          6           0       -1.719167   -0.564877    0.000484
      5          6           0        1.902117   -0.174729    0.001779
      6          1           0        2.675371   -0.920109   -0.001118
      7          1           0        2.038109    0.891844    0.002458
      8          1           0       -2.546013    0.137331   -0.026580
      9          1           0       -1.766693   -1.231398   -0.860505
     10          1           0       -1.788000   -1.183935    0.895280
 ---------------------------------------------------------------------

 SCF Done:  E(UB3LYP) =  -267.837923868     A.U. after    1 cycles

 The electronic state is 2-A.
 Alpha  occ. eigenvalues --  -19.19750 -19.12586 -10.31629 -10.23657 -10.19234
 Alpha  occ. eigenvalues --   -1.13138  -1.04422  -0.78620  -0.70571  -0.57928
 Alpha  occ. eigenvalues --   -0.52158  -0.49961  -0.49777  -0.44500  -0.42380
 Alpha  occ. eigenvalues --   -0.42152  -0.38135  -0.36809  -0.29865  -0.20451
 Alpha virt. eigenvalues --   -0.00974   0.01361   0.03785   0.07328   0.07383
 Alpha virt. eigenvalues --    0.07623   0.09236   0.11502   0.15530   0.16495
 Alpha virt. eigenvalues --    0.16778   0.17518   0.20126   0.23226   0.24088

  Beta  occ. eigenvalues --  -19.19512 -19.12485 -10.31554 -10.22265 -10.19240
  Beta  occ. eigenvalues --   -1.12577  -1.04072  -0.78090  -0.68985  -0.56495
  Beta  occ. eigenvalues --   -0.51840  -0.49623  -0.48636  -0.44172  -0.42038
  Beta  occ. eigenvalues --   -0.41314  -0.37718  -0.35474  -0.29754
  Beta virt. eigenvalues --   -0.07271   0.00566   0.01392   0.04177   0.07392
  Beta virt. eigenvalues --    0.07425   0.07740   0.09438   0.11755   0.15560
  Beta virt. eigenvalues --    0.17125   0.17361   0.19066   0.20412   0.24473

 Mulliken charges and spin densities:
               1          2
     1  C    0.495035   0.032638
     2  O   -0.357608   0.021056
     3  O   -0.416021   0.041588
     4  C   -0.077103  -0.004948
     5  C    0.047686   0.976250
     6  H    0.063809  -0.032839
     7  H    0.087908  -0.037708
     8  H    0.062517  -0.000334
     9  H    0.046676   0.001996
    10  H    0.047101   0.002301
 Sum of Mulliken charges =  -0.00000   1.00000

 Dipole moment (field-independent basis, Debye):
    X=             -0.3750    Y=             -1.9827    Z=              0.0021  Tot=              2.0178
 Quadrupole moment (field-independent basis, Debye-Ang):
   XX=            -24.8446   YY=            -33.8146   ZZ=            -30.1419
   XY=              1.4947   XZ=             -0.0125   YZ=             -0.0013

  Exact polarizability:  57.467  -0.841  43.539  -0.026  -0.018  32.476
 Approx polarizability:  66.888  -2.873  66.914  -0.040  -0.027  45.116

                      1                      2                      3
                      A                      A                      A
 Frequencies --     48.1257               159.5284               169.5859
 Red. masses --      1.1003                 1.3357                 2.2756
 Frc consts  --      0.0015                 0.0200                 0.0386
 IR Inten    --      0.0083                70.4244                 9.5536

                      4                      5                      6
                      A                      A                      A
 Frequencies --    296.8186               300.1720               432.7983
 Red. masses --      1.2136                 3.0654                 3.4307
 Frc consts  --      0.0630                 0.1627                 0.3786
 IR Inten    --      0.4035                 8.3610                 4.1011

                      7                      8                      9
                      A                      A                      A
 Frequencies --    597.2148               642.3015               820.2684
 Red. masses --      2.8325                 4.3755                 3.7280
 Frc consts  --      0.5952                 1.0635                 1.4779
 IR Inten    --      4.9886                 6.1109                44.3580

                     10                     11                     12
                      A                      A                      A
 Frequencies --   1001.9365              1061.1302              1168.0059
 Red. masses --      1.8049                 1.7466                 2.5719
 Frc consts  --      1.0676                 1.1588                 2.0672
 IR Inten    --     25.7845                 6.6969                28.9031

                     13                     14                     15
                      A                      A                      A
 Frequencies --   1196.8764              1231.8804              1400.8349
 Red. masses --      2.0610                 4.5506                 1.2823
 Frc consts  --      1.7395                 4.0687                 1.4825
 IR Inten    --     14.3339               347.5102                24.5156

                     16                     17                     18
                      A                      A                      A
 Frequencies --   1446.6775              1470.9089              1476.2207
 Red. masses --      1.1585                 1.0499                 1.0453
 Frc consts  --      1.4286                 1.3383                 1.3421
 IR Inten    --      7.0586                16.1401                 8.6215

                     19                     20                     21
                      A                      A                      A
 Frequencies --   1806.3189              3053.5192              3110.8971
 Red. masses --     10.9499                 1.0369                 1.0997
 Frc consts  --     21.0499                 5.6964                 6.2703
 IR Inten    --    287.9898                 1.5633                 3.8136

                     22                     23                     24
                      A                      A                      A
 Frequencies --   3162.1400              3189.6619              3345.5969
 Red. masses --      1.1025                 1.0412                 1.1307
 Frc consts  --      6.4949                 6.2412                 7.4567
 IR Inten    --      4.6148                 5.2278                 0.0674

 - Thermochemistry -
 -------------------
 Temperature   298.150 Kelvin.  Pressure   1.00000 Atm.
 Atom     1 has atomic number  6 and mass  12.00000

 Molecular mass:    73.02895 amu.
 Principal axes and moments of inertia in atomic units:
                           1         2         3
     Eigenvalues --   173.33571 410.21756 572.44810
           X            0.99875   0.04999  -0.00010
           Y           -0.04999   0.99875  -0.00003
           Z            0.00010   0.00003   1.00000
 This molecule is an asymmetric top.
 Rotational symmetry number  1.
 Rotational temperatures (Kelvin)      0.49969     0.21114     0.15130
 Rotational constants (GHZ):          10.41183     4.39947     3.15267
 Zero-point vibrational energy     194928.0 (Joules/Mol)
                                   46.58891 (Kcal/Mol)
 Warning -- explicit consideration of   7 degrees of freedom as
           vibrations may cause significant error
 Vibrational temperatures:     69.24   229.53   244.00   427.06   431.88
          (Kelvin)            622.70   859.26   924.13  1180.18  1441.56
                             1526.73  1680.50  1722.04  1772.40  2015.49
                             2081.45  2116.31  2123.95  2598.89  4393.33
                             4475.89  4549.61  4589.21  4813.57

 Zero-point correction=                           0.074244 (Hartree/Particle)
 Thermal correction to Energy=                    0.080790
 Thermal correction to Enthalpy=                  0.081734
 Thermal correction to Gibbs Free Energy=         0.043561
 Sum of electronic and zero-point Energies=           -267.763680
 Sum of electronic and thermal Energies=              -267.757134
 Sum of electronic and thermal Enthalpies=            -267.756190
 Sum of electronic and thermal Free Energies=         -267.794363

                     E (Thermal)             CV                S
                      KCal/Mol        Cal/Mol-Kelvin    Cal/Mol-Kelvin
 Total                   50.696             20.757             80.341
 Electronic               0.000              0.000              1.377
 Translational            0.889              2.981             38.781
 Rotational               0.889              2.981             25.213
 Vibrational             48.919             14.795             14.970
 Vibration     1          0.595              1.978              4.893
 Vibration     2          0.621              1.892              2.555
 Vibration     3          0.625              1.880              2.440
 Vibration     4          0.690              1.680              1.435
 Vibration     5          0.693              1.673              1.416
 Vibration     6          0.794              1.399              0.850
 Vibration     7          0.955              1.038              0.454

                           ! Non-Optimized Parameters !
 Normal termination of Gaussian 16 at Wed Sep 13 10:29:28 2023.
