 Gaussian 16, Revision B.01,

 ---------------------------------------
 # b3lyp/gen opt freq CPHF(Grid=OneStep)
 ---------------------------------------

 ----------------------------
 acetoxymethyl, B3LYP/pcseg-2
 ----------------------------
 Symbolic Z-matrix:
 Charge =  0 Multiplicity = 2

 SCF Done:  E(UB3LYP) =  -267.837923868     A.U. after   17 cycles
 Optimization completed.
    -- Stationary point found.
 Normal termination of Gaussian 16 at Sat Sep 30 00:05:31 2023.

 ------------------------------------------------------------------
 #N Geom=AllCheck Guess=TCheck SCRF=Check GenChk UB3LYP/ChkBas Freq
 ------------------------------------------------------------------

 Structure from the checkpoint file:  "acoch2.chk"
 ----------------------------
 acetoxymethyl, B3LYP/pcseg-2
 ----------------------------
 Charge =  0 Multiplicity = 2

 SCF Done:  E(UB3LYP) =  -267.837923868     A.U. after    1 cycles

  Exact polarizability:  57.467  -0.841  43.538  -0.026  -0.018  32.477
 Approx polarizability:  66.888  -2.873  66.914  -0.040  -0.027  45.116

                      1                      2                      3
                      A                      A                      A
 Frequencies --     48.1437               159.4929               169.6189
 Red. masses --      1.1003                 1.3365                 2.2735
 Frc consts  --      0.0015                 0.0200                 0.0385
 IR Inten    --      0.0085                70.3660                 9.6104

                      4                      5                      6
                      A                      A                      A
 Frequencies --    296.8529               300.1719               432.7995
 Red. masses --      1.2135                 3.0651                 3.4307
 Frc consts  --      0.0630                 0.1627                 0.3786
 IR Inten    --      0.4079                 8.3602                 4.1004

                      7                      8                      9
                      A                      A                      A
 Frequencies --    597.2157               642.3012               820.2671
 Red. masses --      2.8325                 4.3755                 3.7280
 Frc consts  --      0.5952                 1.0635                 1.4779
 IR Inten    --      4.9883                 6.1108                44.3585

                     10                     11                     12
                      A                      A                      A
 Frequencies --   1001.9357              1061.1302              1168.0065
 Red. masses --      1.8050                 1.7466                 2.5718
 Frc consts  --      1.0676                 1.1588                 2.0672
 IR Inten    --     25.7853                 6.6964                28.9033

                     13                     14                     15
                      A                      A                      A
 Frequencies --   1196.8756              1231.8816              1400.8347
 Red. masses --      2.0610                 4.5507                 1.2822
 Frc consts  --      1.7395                 4.0688                 1.4825
 IR Inten    --     14.3319               347.5196                24.5135

                     16                     17                     18
                      A                      A                      A
 Frequencies --   1446.6748              1470.9108              1476.2199
 Red. masses --      1.1585                 1.0499                 1.0453
 Frc consts  --      1.4286                 1.3383                 1.3421
 IR Inten    --      7.0615                16.1410                 8.6214

                     19                     20                     21
                      A                      A                      A
 Frequencies --   1806.3105              3053.5181              3110.8959
 Red. masses --     10.9499                 1.0369                 1.0997
 Frc consts  --     21.0496                 5.6964                 6.2703
 IR Inten    --    287.9950                 1.5633                 3.8135

                     22                     23                     24
                      A                      A                      A
 Frequencies --   3162.1453              3189.6628              3345.5984
 Red. masses --      1.1025                 1.0412                 1.1307
 Frc consts  --      6.4950                 6.2412                 7.4567
 IR Inten    --      4.6148                 5.2254                 0.0672

 - Thermochemistry -
 -------------------
 Temperature   298.150 Kelvin.  Pressure   1.00000 Atm.
 Atom     1 has atomic number  6 and mass  12.00000

 Molecular mass:    73.02895 amu.
 Principal axes and moments of inertia in atomic units:
                           1         2         3
     Eigenvalues --   173.33577 410.21757 572.44817
           X            0.99875   0.04999  -0.00010
           Y           -0.04999   0.99875  -0.00003
           Z            0.00010   0.00004   1.00000
 This molecule is an asymmetric top.
 Rotational symmetry number  1.
 Rotational temperatures (Kelvin)      0.49969     0.21114     0.15130
 Rotational constants (GHZ):          10.41182     4.39947     3.15267
 Zero-point vibrational energy     194928.3 (Joules/Mol)
                                   46.58898 (Kcal/Mol)
 Warning -- explicit consideration of   7 degrees of freedom as
           vibrations may cause significant error
 Vibrational temperatures:     69.27   229.47   244.04   427.11   431.88
          (Kelvin)            622.70   859.26   924.13  1180.18  1441.56
                             1526.73  1680.50  1722.04  1772.40  2015.49
                             2081.44  2116.31  2123.95  2598.88  4393.33
                             4475.89  4549.62  4589.21  4813.57

 Zero-point correction=                           0.074244 (Hartree/Particle)
 Thermal correction to Energy=                    0.080790
 Thermal correction to Enthalpy=                  0.081734
 Thermal correction to Gibbs Free Energy=         0.043562
 Sum of electronic and zero-point Energies=           -267.763680
 Sum of electronic and thermal Energies=              -267.757134
 Sum of electronic and thermal Enthalpies=            -267.756190
 Sum of electronic and thermal Free Energies=         -267.794362

                     E (Thermal)             CV                S
                      KCal/Mol        Cal/Mol-Kelvin    Cal/Mol-Kelvin
 Total                   50.696             20.757             80.341
 Electronic               0.000              0.000              1.377
 Translational            0.889              2.981             38.781
 Rotational               0.889              2.981             25.213
 Vibrational             48.919             14.795             14.969
 Vibration     1          0.595              1.978              4.892
 Vibration     2          0.621              1.892              2.556
 Vibration     3          0.625              1.880              2.440
 Vibration     4          0.691              1.680              1.435
 Vibration     5          0.693              1.673              1.416
 Vibration     6          0.794              1.399              0.850
 Vibration     7          0.955              1.038              0.454

                           ! Non-Optimized Parameters !
 Normal termination of Gaussian 16 at Sat Sep 30 00:16:17 2023.
 Gaussian 16:  ES64L-G16RevB.01 20-Dec-2017

 ---------------------------------
 # rohf/gen geom=check guess=check
 ---------------------------------

 -------------------------------
 acetoxymethyl, ROHF/cc-pVTZ-F12
 -------------------------------
 Structure from the checkpoint file:  "acoch2.chk"
 Charge =  0 Multiplicity = 2

                         Standard orientation:
 ---------------------------------------------------------------------
 Center     Atomic      Atomic             Coordinates (Angstroms)
 Number     Number       Type             X           Y           Z
 ---------------------------------------------------------------------
      1          6           0       -0.423019    0.190416   -0.001274
      2          8           0        0.639398   -0.681692   -0.001641
      3          8           0       -0.285943    1.381867   -0.000292
      4          6           0       -1.719167   -0.564877    0.000484
      5          6           0        1.902117   -0.174728    0.001779
      6          1           0        2.675371   -0.920108   -0.001118
      7          1           0        2.038109    0.891845    0.002458
      8          1           0       -2.546013    0.137331   -0.026580
      9          1           0       -1.766693   -1.231398   -0.860505
     10          1           0       -1.788000   -1.183935    0.895280
 ---------------------------------------------------------------------

 SCF Done:  E(ROHF) =  -266.318003711     A.U. after   17 cycles

 The electronic state is 2-A.
 Alpha  occ. eigenvalues --  -20.61709 -20.55478 -11.39195 -11.27405 -11.24802
 Alpha  occ. eigenvalues --   -1.47300  -1.37702  -1.04088  -0.91806  -0.77228
 Alpha  occ. eigenvalues --   -0.70967  -0.68770  -0.65900  -0.61103  -0.57366
 Alpha  occ. eigenvalues --   -0.57160  -0.53993  -0.49926  -0.46220  -0.06075
 Alpha virt. eigenvalues --    0.04170   0.05119   0.06749   0.06837   0.07647
 Alpha virt. eigenvalues --    0.08376   0.09296   0.10863   0.11678   0.11893
 Alpha virt. eigenvalues --    0.15794   0.16608   0.17551   0.18239   0.19085

 Mulliken charges and spin densities:
               1          2
     1  C    0.719215   0.011979
     2  O   -0.434215   0.023805
     3  O   -0.599814   0.008222
     4  C   -0.266837   0.000786
     5  C   -0.195940   0.908855
     6  H    0.184625   0.023857
     7  H    0.209184   0.021849
     8  H    0.153159  -0.000033
     9  H    0.115748   0.000327
    10  H    0.114876   0.000353
 Sum of Mulliken charges =  -0.00000   1.00000

 Dipole moment (field-independent basis, Debye):
    X=             -0.4960    Y=             -2.1183    Z=              0.0013  Tot=              2.1756
 Quadrupole moment (field-independent basis, Debye-Ang):
   XX=            -24.2563   YY=            -33.9715   ZZ=            -29.8867
   XY=              1.7231   XZ=             -0.0116   YZ=             -0.0012

 Normal termination of Gaussian 16 at Sat Sep 30 00:20:41 2023.
