 Gaussian 16, Revision B.01,
 Gaussian 16:  ES64L-G16RevB.01 20-Dec-2017

 --------------------
 # b3lyp/gen opt freq
 --------------------

 --------------------------
 acetic acid, B3LYP/pcseg-2
 --------------------------
 Symbolic Z-matrix:
 Charge =  0 Multiplicity = 1

 SCF Done:  E(RB3LYP) =  -229.190578266     A.U. after   12 cycles
 SCF Done:  E(RB3LYP) =  -229.190848803     A.U. after    9 cycles
 SCF Done:  E(RB3LYP) =  -229.190854467     A.U. after    8 cycles
 SCF Done:  E(RB3LYP) =  -229.190855036     A.U. after    6 cycles
 Optimization completed.
    -- Stationary point found.
 Normal termination of Gaussian 16 at Fri Feb 25 01:07:03 2022.

 ------------------------------------------------------------------
 #N Geom=AllCheck Guess=TCheck SCRF=Check GenChk RB3LYP/ChkBas Freq
 ------------------------------------------------------------------

 Structure from the checkpoint file:  "/wrk/irikura/Gau-12853.chk"
 --------------------------
 acetic acid, B3LYP/pcseg-2
 --------------------------
 Charge =  0 Multiplicity = 1

                         Standard orientation:
 ---------------------------------------------------------------------
 Center     Atomic      Atomic             Coordinates (Angstroms)
 Number     Number       Type             X           Y           Z
 ---------------------------------------------------------------------
      1          6           0        1.067677   -0.900975    0.000000
      2          6           0        0.000000    0.155398    0.000000
      3          8           0        0.180247    1.344395    0.000000
      4          1           0        2.045333   -0.430909    0.000000
      5          1           0        0.958591   -1.537527    0.877890
      6          1           0        0.958591   -1.537527   -0.877890
      7          8           0       -1.242078   -0.389812    0.000000
      8          1           0       -1.873927    0.342768    0.000000
 ---------------------------------------------------------------------

 SCF Done:  E(RB3LYP) =  -229.190855036     A.U. after    1 cycles

 The electronic state is 1-A'.
 Alpha  occ. eigenvalues --  -19.17854 -19.12095 -10.31647 -10.19062  -1.11813
 Alpha  occ. eigenvalues --   -1.02900  -0.76922  -0.62332  -0.50250  -0.49040
 Alpha  occ. eigenvalues --   -0.48181  -0.42257  -0.40849  -0.40439  -0.33742
 Alpha  occ. eigenvalues --   -0.29221
 Alpha virt. eigenvalues --   -0.00717   0.00492   0.03246   0.07486   0.07683
 Alpha virt. eigenvalues --    0.10593   0.14476   0.17115   0.17410   0.19134
 Alpha virt. eigenvalues --    0.19589   0.22863   0.29474   0.31058   0.33415

 Mulliken charges:
               1
     1  C   -0.052684
     2  C    0.457533
     3  O   -0.423561
     4  H    0.062957
     5  H    0.046894
     6  H    0.046894
     7  O   -0.349501
     8  H    0.211468
 Sum of Mulliken charges =  -0.00000

 Dipole moment (field-independent basis, Debye):
    X=             -0.2830    Y=             -1.7529    Z=              0.0000  Tot=              1.7756
 Quadrupole moment (field-independent basis, Debye-Ang):
   XX=            -20.3527   YY=            -27.7658   ZZ=            -23.3099
   XY=             -3.7780   XZ=              0.0000   YZ=             -0.0000

  Exact polarizability:  35.219  -0.753  36.672  -0.000   0.000  24.325
 Approx polarizability:  44.880   3.189  53.905   0.000  -0.000  33.764

                      1                      2                      3
                     A"                     A'                     A"
 Frequencies --     67.9220               425.0430               545.8559
 Red. masses --      1.0850                 2.8988                 1.4994
 Frc consts  --      0.0029                 0.3086                 0.2632
 IR Inten    --      0.2150                 4.5259                27.9822

                      4                      5                      6
                     A'                     A"                     A'
 Frequencies --    585.3725               665.2208               858.7184
 Red. masses --      4.2608                 1.5448                 3.9310
 Frc consts  --      0.8602                 0.4028                 1.7079
 IR Inten    --     38.1029                94.5035                 3.9783

                      7                      8                      9
                     A'                     A"                     A'
 Frequencies --    998.7862              1069.6537              1201.3741
 Red. masses --      1.6442                 1.8189                 1.9628
 Frc consts  --      0.9664                 1.2261                 1.6691
 IR Inten    --     79.0420                 7.6898               216.1276

                     10                     11                     12
                     A'                     A'                     A'
 Frequencies --   1336.7976              1408.5370              1471.4095
 Red. masses --      1.8508                 1.4654                 1.0514
 Frc consts  --      1.9486                 1.7129                 1.3412
 IR Inten    --     36.9048                47.5604                16.5649

                     13                     14                     15
                     A"                     A'                     A'
 Frequencies --   1477.7492              1814.4626              3056.6293
 Red. masses --      1.0452                 9.1834                 1.0368
 Frc consts  --      1.3447                17.8136                 5.7074
 IR Inten    --      9.4021               346.1064                 1.5467

                     16                     17                     18
                     A"                     A'                     A'
 Frequencies --   3114.8070              3165.5190              3750.9817
 Red. masses --      1.0996                 1.1028                 1.0642
 Frc consts  --      6.2854                 6.5106                 8.8219
 IR Inten    --      3.4400                 4.3010                61.2016

 - Thermochemistry -
 -------------------
 Temperature   298.150 Kelvin.  Pressure   1.00000 Atm.
 Atom     1 has atomic number  6 and mass  12.00000

 Molecular mass:    60.02113 amu.
 Principal axes and moments of inertia in atomic units:
                           1         2         3
     Eigenvalues --   158.72138 190.51331 338.13979
           X            0.78731   0.61656   0.00000
           Y           -0.61656   0.78731   0.00000
           Z            0.00000  -0.00000   1.00000
 This molecule is an asymmetric top.
 Rotational symmetry number  1.
 Rotational temperatures (Kelvin)      0.54570     0.45463     0.25615
 Rotational constants (GHZ):          11.37050     9.47305     5.33726
 Zero-point vibrational energy     161584.6 (Joules/Mol)
                                   38.61965 (Kcal/Mol)
 Warning -- explicit consideration of   4 degrees of freedom as
           vibrations may cause significant error
 Vibrational temperatures:     97.72   611.54   785.36   842.22   957.10
          (Kelvin)           1235.50  1437.03  1538.99  1728.51  1923.35
                             2026.57  2117.03  2126.15  2610.61  4397.81
                             4481.51  4554.48  5396.83

 Zero-point correction=                           0.061544 (Hartree/Particle)
 Thermal correction to Energy=                    0.066122
 Thermal correction to Enthalpy=                  0.067067
 Thermal correction to Gibbs Free Energy=         0.034310
 Sum of electronic and zero-point Energies=           -229.129311
 Sum of electronic and thermal Energies=              -229.124733
 Sum of electronic and thermal Enthalpies=            -229.123788
 Sum of electronic and thermal Free Energies=         -229.156545

                     E (Thermal)             CV                S
                      KCal/Mol        Cal/Mol-Kelvin    Cal/Mol-Kelvin
 Total                   41.492             14.326             68.943
 Electronic               0.000              0.000              0.000
 Translational            0.889              2.981             38.196
 Rotational               0.889              2.981             23.840
 Vibrational             39.715              8.365              6.906
 Vibration     1          0.598              1.970              4.213
 Vibration     2          0.787              1.416              0.875
 Vibration     3          0.901              1.149              0.553
 Vibration     4          0.942              1.063              0.476

 Optimization completed.
    -- Stationary point found.
 Normal termination of Gaussian 16 at Fri Feb 25 01:08:46 2022.
