 Gaussian 16, Revision B.01,

 ---------------------------------------
 # b3lyp/gen opt freq CPHF(Grid=OneStep)
 ---------------------------------------

 --------------------------
 acetic acid, B3LYP/pcseg-2
 --------------------------
 Symbolic Z-matrix:
 Charge =  0 Multiplicity = 1

 SCF Done:  E(RB3LYP) =  -229.190855036     A.U. after   12 cycles
 Optimization completed.
    -- Stationary point found.
 Normal termination of Gaussian 16 at Fri Sep 29 22:51:10 2023.

 ------------------------------------------------------------------
 #N Geom=AllCheck Guess=TCheck SCRF=Check GenChk RB3LYP/ChkBas Freq
 ------------------------------------------------------------------

 Structure from the checkpoint file:  "acoh.chk"
 --------------------------
 acetic acid, B3LYP/pcseg-2
 --------------------------
 Charge =  0 Multiplicity = 1

 SCF Done:  E(RB3LYP) =  -229.190855036     A.U. after    1 cycles

  Exact polarizability:  35.219  -0.753  36.672  -0.000   0.000  24.326
 Approx polarizability:  44.880   3.189  53.905   0.000  -0.000  33.764

                      1                      2                      3
                     A"                     A'                     A"
 Frequencies --     67.9058               425.0418               545.8506
 Red. masses --      1.0850                 2.8988                 1.4993
 Frc consts  --      0.0029                 0.3086                 0.2632
 IR Inten    --      0.2150                 4.5263                27.9874

                      4                      5                      6
                     A'                     A"                     A'
 Frequencies --    585.3699               665.2140               858.7163
 Red. masses --      4.2608                 1.5448                 3.9310
 Frc consts  --      0.8602                 0.4028                 1.7078
 IR Inten    --     38.1030                94.5005                 3.9779

                      7                      8                      9
                     A'                     A"                     A'
 Frequencies --    998.7857              1069.6536              1201.3755
 Red. masses --      1.6442                 1.8188                 1.9628
 Frc consts  --      0.9664                 1.2261                 1.6691
 IR Inten    --     79.0371                 7.6900               216.1302

                     10                     11                     12
                     A'                     A'                     A'
 Frequencies --   1336.7942              1408.5340              1471.4081
 Red. masses --      1.8508                 1.4654                 1.0514
 Frc consts  --      1.9487                 1.7129                 1.3412
 IR Inten    --     36.9057                47.5585                16.5642

                     13                     14                     15
                     A"                     A'                     A'
 Frequencies --   1477.7463              1814.4610              3056.6318
 Red. masses --      1.0452                 9.1833                 1.0368
 Frc consts  --      1.3447                17.8133                 5.7074
 IR Inten    --      9.4019               346.1013                 1.5463

                     16                     17                     18
                     A"                     A'                     A'
 Frequencies --   3114.8103              3165.5197              3750.9824
 Red. masses --      1.0996                 1.1028                 1.0642
 Frc consts  --      6.2854                 6.5106                 8.8219
 IR Inten    --      3.4400                 4.3013                61.1989

 - Thermochemistry -
 -------------------
 Temperature   298.150 Kelvin.  Pressure   1.00000 Atm.
 Atom     1 has atomic number  6 and mass  12.00000

 Molecular mass:    60.02113 amu.
 Principal axes and moments of inertia in atomic units:
                           1         2         3
     Eigenvalues --   158.72133 190.51335 338.13978
           X            0.78730   0.61657   0.00000
           Y           -0.61657   0.78730   0.00000
           Z            0.00000  -0.00000   1.00000
 This molecule is an asymmetric top.
 Rotational symmetry number  1.
 Rotational temperatures (Kelvin)      0.54570     0.45463     0.25615
 Rotational constants (GHZ):          11.37050     9.47304     5.33726
 Zero-point vibrational energy     161584.4 (Joules/Mol)
                                   38.61960 (Kcal/Mol)
 Warning -- explicit consideration of   4 degrees of freedom as
           vibrations may cause significant error
 Vibrational temperatures:     97.70   611.54   785.36   842.22   957.09
          (Kelvin)           1235.50  1437.03  1538.99  1728.51  1923.35
                             2026.57  2117.03  2126.15  2610.60  4397.81
                             4481.52  4554.48  5396.83

 Zero-point correction=                           0.061544 (Hartree/Particle)
 Thermal correction to Energy=                    0.066122
 Thermal correction to Enthalpy=                  0.067067
 Thermal correction to Gibbs Free Energy=         0.034309
 Sum of electronic and zero-point Energies=           -229.129311
 Sum of electronic and thermal Energies=              -229.124733
 Sum of electronic and thermal Enthalpies=            -229.123788
 Sum of electronic and thermal Free Energies=         -229.156546

                     E (Thermal)             CV                S
                      KCal/Mol        Cal/Mol-Kelvin    Cal/Mol-Kelvin
 Total                   41.492             14.326             68.943
 Electronic               0.000              0.000              0.000
 Translational            0.889              2.981             38.196
 Rotational               0.889              2.981             23.840
 Vibrational             39.715              8.365              6.907
 Vibration     1          0.598              1.970              4.213
 Vibration     2          0.787              1.416              0.875
 Vibration     3          0.901              1.149              0.553
 Vibration     4          0.942              1.063              0.476

 Optimization completed.
    -- Stationary point found.
 Normal termination of Gaussian 16 at Fri Sep 29 22:53:47 2023.
 Gaussian 16:  ES64L-G16RevB.01 20-Dec-2017

 ---------------------------------
 # rohf/gen geom=check guess=check
 ---------------------------------

 -----------------------------
 acetic acid, ROHF/cc-pVTZ-F12
 -----------------------------
 Structure from the checkpoint file:  "acoh.chk"
 Charge =  0 Multiplicity = 1

                         Standard orientation:
 ---------------------------------------------------------------------
 Center     Atomic      Atomic             Coordinates (Angstroms)
 Number     Number       Type             X           Y           Z
 ---------------------------------------------------------------------
      1          6           0        1.067677   -0.900976    0.000000
      2          6           0        0.000000    0.155398    0.000000
      3          8           0        0.180247    1.344395    0.000000
      4          1           0        2.045333   -0.430910    0.000000
      5          1           0        0.958590   -1.537528    0.877890
      6          1           0        0.958590   -1.537528   -0.877890
      7          8           0       -1.242078   -0.389812    0.000000
      8          1           0       -1.873927    0.342769    0.000000
 ---------------------------------------------------------------------

 SCF Done:  E(ROHF) =  -227.919460142     A.U. after   11 cycles

 The electronic state is 1-A'.
 Alpha  occ. eigenvalues --  -20.61153 -20.54970 -11.38911 -11.24618  -1.46644
 Alpha  occ. eigenvalues --   -1.36393  -1.02902  -0.82538  -0.70720  -0.68281
 Alpha  occ. eigenvalues --   -0.65203  -0.58641  -0.57594  -0.56305  -0.48659
 Alpha  occ. eigenvalues --   -0.45720
 Alpha virt. eigenvalues --    0.04567   0.05234   0.07079   0.07147   0.09279
 Alpha virt. eigenvalues --    0.09355   0.09624   0.15335   0.15909   0.17267
 Alpha virt. eigenvalues --    0.17418   0.18240   0.20865   0.22006   0.22487

 Mulliken charges and spin densities:
               1          2
     1  C   -0.260286   0.000000
     2  C    0.772137   0.000000
     3  O   -0.613603   0.000000
     4  H    0.139140   0.000000
     5  H    0.109452   0.000000
     6  H    0.109452   0.000000
     7  O   -0.693149   0.000000
     8  H    0.436857   0.000000
 Sum of Mulliken charges =  -0.00000   0.00000

 Dipole moment (field-independent basis, Debye):
    X=             -0.2137    Y=             -1.9753    Z=             -0.0000  Tot=              1.9868
 Quadrupole moment (field-independent basis, Debye-Ang):
   XX=            -20.0641   YY=            -27.8283   ZZ=            -23.1440
   XY=             -4.0425   XZ=             -0.0000   YZ=              0.0000

 Normal termination of Gaussian 16 at Fri Sep 29 22:54:52 2023.
