 Gaussian 16, Revision B.01,
 Gaussian 16:  ES64L-G16RevB.01 20-Dec-2017

 --------------------
 # b3lyp/gen opt freq
 --------------------

 -----------------------
 propenal, B3LYP/pcseg-2
 -----------------------
 Symbolic Z-matrix:
 Charge =  0 Multiplicity = 1

 SCF Done:  E(RB3LYP) =  -191.996328896     A.U. after   14 cycles
 SCF Done:  E(RB3LYP) =  -191.996330522     A.U. after    8 cycles
 Optimization completed.
    -- Stationary point found.
 Normal termination of Gaussian 16 at Sat Jun 18 10:45:13 2022.

 ------------------------------------------------------------------
 #N Geom=AllCheck Guess=TCheck SCRF=Check GenChk RB3LYP/ChkBas Freq
 ------------------------------------------------------------------

 Structure from the checkpoint file:  "/wrk/irikura/Gau-21180.chk"
 -----------------------
 propenal, B3LYP/pcseg-2
 -----------------------
 Charge =  0 Multiplicity = 1

                         Standard orientation:
 ---------------------------------------------------------------------
 Center     Atomic      Atomic             Coordinates (Angstroms)
 Number     Number       Type             X           Y           Z
 ---------------------------------------------------------------------
      1          6           0       -0.147871   -0.745494    0.000000
      2          6           0       -0.000000    0.718157   -0.000000
      3          6           0        1.203575    1.287230   -0.000000
      4          8           0       -1.208308   -1.324187    0.000000
      5          1           0        0.808078   -1.308429    0.000000
      6          1           0       -0.915020    1.297672   -0.000000
      7          1           0        1.334758    2.360227   -0.000000
      8          1           0        2.104417    0.684673   -0.000000
 ---------------------------------------------------------------------

 SCF Done:  E(RB3LYP) =  -191.996330522     A.U. after    1 cycles

 The electronic state is 1-A'.
 Alpha  occ. eigenvalues --  -19.12869 -10.26851 -10.21073 -10.20133  -1.05684
 Alpha  occ. eigenvalues --   -0.81531  -0.65878  -0.58441  -0.49101  -0.48805
 Alpha  occ. eigenvalues --   -0.43352  -0.41369  -0.40454  -0.30860  -0.27185
 Alpha virt. eigenvalues --   -0.08082   0.01800   0.02385   0.02939   0.05851
 Alpha virt. eigenvalues --    0.08472   0.11309   0.15096   0.15282   0.19013
 Alpha virt. eigenvalues --    0.20083   0.20421   0.24694   0.25893   0.27479

 Mulliken charges:
               1
     1  C    0.292432
     2  C   -0.022884
     3  C   -0.069205
     4  O   -0.374006
     5  H   -0.014324
     6  H    0.060798
     7  H    0.069344
     8  H    0.057845
 Sum of Mulliken charges =  -0.00000

 Dipole moment (field-independent basis, Debye):
    X=              2.5877    Y=              2.1963    Z=             -0.0000  Tot=              3.3941
 Quadrupole moment (field-independent basis, Debye-Ang):
   XX=            -25.0072   YY=            -24.3936   ZZ=            -25.1393
   XY=             -2.8200   XZ=              0.0000   YZ=              0.0000

  Exact polarizability:  51.022  12.369  46.885  -0.000   0.000  24.218
 Approx polarizability:  84.021  25.372  65.705  -0.000  -0.000  34.336

                      1                      2                      3
                     A"                     A'                     A'
 Frequencies --    167.4360               323.6693               573.9349
 Red. masses --      3.4308                 2.6792                 4.9123
 Frc consts  --      0.0567                 0.1654                 0.9534
 IR Inten    --      4.6770                10.3268                 4.6035

                      4                      5                      6
                     A"                     A'                     A"
 Frequencies --    613.3711               923.4609              1004.2890
 Red. masses --      1.1757                 1.6014                 1.3008
 Frc consts  --      0.2606                 0.8046                 0.7730
 IR Inten    --     11.0238                23.2881                48.0121

                      7                      8                      9
                     A"                     A"                     A'
 Frequencies --   1030.7349              1038.1287              1172.8351
 Red. masses --      1.6743                 1.1927                 2.0456
 Frc consts  --      1.0480                 0.7573                 1.6578
 IR Inten    --      2.5145                11.5128                39.8428

                     10                     11                     12
                     A'                     A'                     A'
 Frequencies --   1302.8675              1393.2694              1459.0914
 Red. masses --      1.4543                 1.1926                 1.2192
 Frc consts  --      1.4544                 1.3640                 1.5293
 IR Inten    --      2.1545                 6.2650                11.6136

                     13                     14                     15
                     A'                     A'                     A'
 Frequencies --   1677.6376              1770.4258              2881.1409
 Red. masses --      4.0840                 9.6176                 1.0827
 Frc consts  --      6.7722                17.7612                 5.2953
 IR Inten    --      2.0368               266.7064                92.9945

                     16                     17                     18
                     A'                     A'                     A'
 Frequencies --   3137.9158              3175.3749              3228.5699
 Red. masses --      1.0596                 1.0932                 1.1150
 Frc consts  --      6.1470                 6.4946                 6.8474
 IR Inten    --      5.1803                 1.6913                 4.4973

 - Thermochemistry -
 -------------------
 Temperature   298.150 Kelvin.  Pressure   1.00000 Atm.
 Atom     1 has atomic number  6 and mass  12.00000

 Molecular mass:    56.02621 amu.
 Principal axes and moments of inertia in atomic units:
                           1         2         3
     Eigenvalues --    37.32379 386.56506 423.88885
           X            0.62427   0.78121   0.00000
           Y            0.78121  -0.62427   0.00000
           Z            0.00000   0.00000   1.00000
 This molecule is an asymmetric top.
 Rotational symmetry number  1.
 Rotational temperatures (Kelvin)      2.32061     0.22406     0.20433
 Rotational constants (GHZ):          48.35364     4.66866     4.25758
 Zero-point vibrational energy     160743.1 (Joules/Mol)
                                   38.41853 (Kcal/Mol)
 Warning -- explicit consideration of   4 degrees of freedom as
           vibrations may cause significant error
 Vibrational temperatures:    240.90   465.69   825.76   882.50  1328.65
          (Kelvin)           1444.95  1483.00  1493.64  1687.45  1874.54
                             2004.60  2099.31  2413.75  2547.25  4145.32
                             4514.76  4568.66  4645.19

 Zero-point correction=                           0.061224 (Hartree/Particle)
 Thermal correction to Energy=                    0.065586
 Thermal correction to Enthalpy=                  0.066530
 Thermal correction to Gibbs Free Energy=         0.034936
 Sum of electronic and zero-point Energies=           -191.935107
 Sum of electronic and thermal Energies=              -191.930744
 Sum of electronic and thermal Enthalpies=            -191.929800
 Sum of electronic and thermal Free Energies=         -191.961395

                     E (Thermal)             CV                S
                      KCal/Mol        Cal/Mol-Kelvin    Cal/Mol-Kelvin
 Total                   41.156             13.720             66.497
 Electronic               0.000              0.000              0.000
 Translational            0.889              2.981             37.991
 Rotational               0.889              2.981             23.329
 Vibrational             39.379              7.758              5.176
 Vibration     1          0.624              1.883              2.464
 Vibration     2          0.708              1.628              1.291
 Vibration     3          0.930              1.088              0.497
 Vibration     4          0.973              1.004              0.427

 Optimization completed.
    -- Stationary point found.
 Normal termination of Gaussian 16 at Sat Jun 18 10:45:58 2022.
