 Gaussian 16, Revision B.01,

 ---------------------------------------
 # b3lyp/gen opt freq CPHF(Grid=OneStep)
 ---------------------------------------

 -----------------------
 propenal, B3LYP/pcseg-2
 -----------------------
 Symbolic Z-matrix:
 Charge =  0 Multiplicity = 1

 SCF Done:  E(RB3LYP) =  -191.996330521     A.U. after   14 cycles
 Optimization completed.
    -- Stationary point found.
 Normal termination of Gaussian 16 at Sat Sep 30 21:59:39 2023.

 ------------------------------------------------------------------
 #N Geom=AllCheck Guess=TCheck SCRF=Check GenChk RB3LYP/ChkBas Freq
 ------------------------------------------------------------------

 Structure from the checkpoint file:  "acrolein.chk"
 -----------------------
 propenal, B3LYP/pcseg-2
 -----------------------
 Charge =  0 Multiplicity = 1

 SCF Done:  E(RB3LYP) =  -191.996330521     A.U. after    1 cycles

  Exact polarizability:  51.022  12.369  46.886   0.000  -0.000  24.218
 Approx polarizability:  84.021  25.372  65.706   0.000   0.000  34.336

                      1                      2                      3
                     A"                     A'                     A'
 Frequencies --    167.4356               323.6679               573.9353
 Red. masses --      3.4308                 2.6792                 4.9122
 Frc consts  --      0.0567                 0.1654                 0.9534
 IR Inten    --      4.6768                10.3270                 4.6038

                      4                      5                      6
                     A"                     A'                     A"
 Frequencies --    613.3689               923.4605              1004.2890
 Red. masses --      1.1757                 1.6014                 1.3008
 Frc consts  --      0.2606                 0.8046                 0.7730
 IR Inten    --     11.0232                23.2877                48.0110

                      7                      8                      9
                     A"                     A"                     A'
 Frequencies --   1030.7348              1038.1299              1172.8345
 Red. masses --      1.6743                 1.1927                 2.0456
 Frc consts  --      1.0480                 0.7573                 1.6578
 IR Inten    --      2.5158                11.5130                39.8409

                     10                     11                     12
                     A'                     A'                     A'
 Frequencies --   1302.8676              1393.2652              1459.0916
 Red. masses --      1.4543                 1.1926                 1.2192
 Frc consts  --      1.4544                 1.3640                 1.5293
 IR Inten    --      2.1544                 6.2664                11.6128

                     13                     14                     15
                     A'                     A'                     A'
 Frequencies --   1677.6354              1770.4243              2881.1319
 Red. masses --      4.0840                 9.6177                 1.0827
 Frc consts  --      6.7722                17.7613                 5.2952
 IR Inten    --      2.0369               266.6984                92.9942

                     16                     17                     18
                     A'                     A'                     A'
 Frequencies --   3137.9148              3175.3741              3228.5711
 Red. masses --      1.0596                 1.0932                 1.1150
 Frc consts  --      6.1470                 6.4946                 6.8474
 IR Inten    --      5.1796                 1.6912                 4.4981

 - Thermochemistry -
 -------------------
 Temperature   298.150 Kelvin.  Pressure   1.00000 Atm.
 Atom     1 has atomic number  6 and mass  12.00000

 Molecular mass:    56.02621 amu.
 Principal axes and moments of inertia in atomic units:
                           1         2         3
     Eigenvalues --    37.32376 386.56508 423.88884
           X            0.62427   0.78121   0.00000
           Y            0.78121  -0.62427   0.00000
           Z           -0.00000  -0.00000   1.00000
 This molecule is an asymmetric top.
 Rotational symmetry number  1.
 Rotational temperatures (Kelvin)      2.32061     0.22406     0.20433
 Rotational constants (GHZ):          48.35368     4.66866     4.25758
 Zero-point vibrational energy     160743.0 (Joules/Mol)
                                   38.41850 (Kcal/Mol)
 Warning -- explicit consideration of   4 degrees of freedom as
           vibrations may cause significant error
 Vibrational temperatures:    240.90   465.69   825.76   882.50  1328.65
          (Kelvin)           1444.95  1483.00  1493.64  1687.45  1874.54
                             2004.60  2099.31  2413.74  2547.25  4145.31
                             4514.76  4568.66  4645.19

 Zero-point correction=                           0.061224 (Hartree/Particle)
 Thermal correction to Energy=                    0.065586
 Thermal correction to Enthalpy=                  0.066530
 Thermal correction to Gibbs Free Energy=         0.034936
 Sum of electronic and zero-point Energies=           -191.935107
 Sum of electronic and thermal Energies=              -191.930744
 Sum of electronic and thermal Enthalpies=            -191.929800
 Sum of electronic and thermal Free Energies=         -191.961395

                     E (Thermal)             CV                S
                      KCal/Mol        Cal/Mol-Kelvin    Cal/Mol-Kelvin
 Total                   41.156             13.720             66.497
 Electronic               0.000              0.000              0.000
 Translational            0.889              2.981             37.991
 Rotational               0.889              2.981             23.329
 Vibrational             39.378              7.758              5.176
 Vibration     1          0.624              1.883              2.464
 Vibration     2          0.708              1.628              1.292
 Vibration     3          0.930              1.088              0.497
 Vibration     4          0.973              1.004              0.427

 Optimization completed.
    -- Stationary point found.
 Normal termination of Gaussian 16 at Sat Sep 30 22:02:14 2023.
 Gaussian 16:  ES64L-G16RevB.01 20-Dec-2017

 ---------------------------------
 # rohf/gen geom=check guess=check
 ---------------------------------

 --------------------------
 propenal, ROHF/cc-pVTZ-F12
 --------------------------
 Structure from the checkpoint file:  "acrolein.chk"
 Charge =  0 Multiplicity = 1

                         Standard orientation:
 ---------------------------------------------------------------------
 Center     Atomic      Atomic             Coordinates (Angstroms)
 Number     Number       Type             X           Y           Z
 ---------------------------------------------------------------------
      1          6           0       -0.147871   -0.745494    0.000000
      2          6           0       -0.000000    0.718157    0.000000
      3          6           0        1.203575    1.287230   -0.000000
      4          8           0       -1.208307   -1.324188    0.000000
      5          1           0        0.808079   -1.308429   -0.000000
      6          1           0       -0.915020    1.297672    0.000000
      7          1           0        1.334757    2.360227   -0.000000
      8          1           0        2.104417    0.684674   -0.000000
 ---------------------------------------------------------------------

 SCF Done:  E(ROHF) =  -190.847129046     A.U. after   12 cycles

 The electronic state is 1-A'.
 Alpha  occ. eigenvalues --  -20.55720 -11.33543 -11.26994 -11.25557  -1.39507
 Alpha  occ. eigenvalues --   -1.09116  -0.88844  -0.78870  -0.67520  -0.66942
 Alpha  occ. eigenvalues --   -0.60837  -0.56041  -0.54606  -0.43261  -0.40323
 Alpha virt. eigenvalues --    0.04002   0.05087   0.06200   0.06304   0.07479
 Alpha virt. eigenvalues --    0.08434   0.09055   0.10168   0.11382   0.11503
 Alpha virt. eigenvalues --    0.12397   0.17148   0.18130   0.19726   0.20105

 Mulliken charges and spin densities:
               1          2
     1  C    0.366359   0.000000
     2  C   -0.150631   0.000000
     3  C   -0.280734   0.000000
     4  O   -0.567410   0.000000
     5  H    0.103113   0.000000
     6  H    0.213960   0.000000
     7  H    0.170041   0.000000
     8  H    0.145303   0.000000
 Sum of Mulliken charges =  -0.00000   0.00000

 Dipole moment (field-independent basis, Debye):
    X=              3.0032    Y=              2.3424    Z=             -0.0000  Tot=              3.8087
 Quadrupole moment (field-independent basis, Debye-Ang):
   XX=            -24.8451   YY=            -24.3788   ZZ=            -25.4063
   XY=             -3.1739   XZ=              0.0000   YZ=              0.0000

 Normal termination of Gaussian 16 at Sat Sep 30 22:03:37 2023.
