 Gaussian 16, Revision B.01,
 Gaussian 16:  ES64L-G16RevB.01 20-Dec-2017

 --------------------
 # b3lyp/gen opt freq
 --------------------

 ---------------------
 allene, B3LYP/pcseg-2
 ---------------------
 Symbolic Z-matrix:
 Charge =  0 Multiplicity = 1

 SCF Done:  E(RB3LYP) =  -116.710331640     A.U. after   11 cycles
 Optimization completed.
    -- Stationary point found.
 Normal termination of Gaussian 16 at Tue Jun 14 20:55:20 2022.

 ------------------------------------------------------------------
 #N Geom=AllCheck Guess=TCheck SCRF=Check GenChk RB3LYP/ChkBas Freq
 ------------------------------------------------------------------

 Structure from the checkpoint file:  "/wrk/irikura/Gau-12271.chk"
 ---------------------
 allene, B3LYP/pcseg-2
 ---------------------
 Charge =  0 Multiplicity = 1

                         Standard orientation:
 ---------------------------------------------------------------------
 Center     Atomic      Atomic             Coordinates (Angstroms)
 Number     Number       Type             X           Y           Z
 ---------------------------------------------------------------------
      1          6           0        0.000000    0.000000    0.000000
      2          6           0        0.000000    0.000000    1.300081
      3          6           0        0.000000    0.000000   -1.300081
      4          1           0        0.000000    0.925050    1.863608
      5          1           0       -0.000000   -0.925050    1.863608
      6          1           0        0.925050   -0.000000   -1.863608
      7          1           0       -0.925050    0.000000   -1.863608
 ---------------------------------------------------------------------

 SCF Done:  E(RB3LYP) =  -116.710331640     A.U. after    1 cycles

 The electronic state is 1-A1.
 Alpha  occ. eigenvalues --  -10.19606 -10.17934 -10.17928  -0.79787  -0.71127
 Alpha  occ. eigenvalues --   -0.52868  -0.46151  -0.45047  -0.45047  -0.27642
 Alpha  occ. eigenvalues --   -0.27642
 Alpha virt. eigenvalues --   -0.00074  -0.00074   0.02189   0.04842   0.08269
 Alpha virt. eigenvalues --    0.08269   0.11550   0.13766   0.18196   0.18196
 Alpha virt. eigenvalues --    0.23388   0.26277   0.28685   0.28685   0.29108

 Mulliken charges:
               1
     1  C    0.073383
     2  C   -0.173145
     3  C   -0.173145
     4  H    0.068227
     5  H    0.068227
     6  H    0.068227
     7  H    0.068227
 Sum of Mulliken charges =  -0.00000

 Dipole moment (field-independent basis, Debye):
    X=             -0.0000    Y=             -0.0000    Z=             -0.0000  Tot=              0.0000
 Quadrupole moment (field-independent basis, Debye-Ang):
   XX=            -19.6303   YY=            -19.6303   ZZ=            -15.8235
   XY=             -0.0000   XZ=             -0.0000   YZ=             -0.0000

  Exact polarizability:  24.898   0.000  24.898   0.000  -0.000  62.871
 Approx polarizability:  33.022  -0.000  33.022   0.000   0.000  98.425

                      1                      2                      3
                      E                      E                      E
 Frequencies --    373.7897               373.7897               877.1065
 Red. masses --      2.5098                 2.5098                 1.3061
 Frc consts  --      0.2066                 0.2066                 0.5920
 IR Inten    --      8.3504                 8.3504                59.7656

                      4                      5                      6
                      E                     B1                      E
 Frequencies --    877.1065               883.9664              1019.7836
 Red. masses --      1.3061                 1.0078                 1.5305
 Frc consts  --      0.5920                 0.4640                 0.9378
 IR Inten    --     59.7656                 0.0000                 0.5827

                      7                      8                      9
                      E                     A1                     B2
 Frequencies --   1019.7836              1111.1988              1428.6876
 Red. masses --      1.5305                 2.4363                 1.0801
 Frc consts  --      0.9378                 1.7724                 1.2990
 IR Inten    --      0.5827                 0.0000                 4.3083

                     10                     11                     12
                     A1                     B2                     B2
 Frequencies --   1485.0251              2041.4887              3123.6771
 Red. masses --      1.4041                 9.5218                 1.0577
 Frc consts  --      1.8244                23.3811                 6.0807
 IR Inten    --      0.0000                90.9396                 1.8843

                     13                     14                     15
                     A1                      E                      E
 Frequencies --   3127.8924              3197.7333              3197.7333
 Red. masses --      1.0580                 1.1147                 1.1147
 Frc consts  --      6.0988                 6.7156                 6.7156
 IR Inten    --      0.0000                 0.9547                 0.9547

 - Thermochemistry -
 -------------------
 Temperature   298.150 Kelvin.  Pressure   1.00000 Atm.
 Atom     1 has atomic number  6 and mass  12.00000

 Molecular mass:    40.03130 amu.
 Principal axes and moments of inertia in atomic units:
                           1         2         3
     Eigenvalues --    12.31894 201.01784 201.01784
           X           -0.00000   0.42806   0.90375
           Y           -0.00000   0.90375  -0.42806
           Z            1.00000   0.00000   0.00000
 This molecule is a prolate symmetric top.
 Rotational symmetry number  4.
 Rotational temperatures (Kelvin)      7.03096     0.43088     0.43088
 Rotational constants (GHZ):         146.50136     8.97802     8.97802
 Zero-point vibrational energy     144381.9 (Joules/Mol)
                                   34.50809 (Kcal/Mol)
 Warning -- explicit consideration of   2 degrees of freedom as
           vibrations may cause significant error
 Vibrational temperatures:    537.80   537.80  1261.96  1261.96  1271.83
          (Kelvin)           1467.24  1467.24  1598.77  2055.56  2136.62
                             2937.25  4494.27  4500.34  4600.83  4600.83

 Zero-point correction=                           0.054992 (Hartree/Particle)
 Thermal correction to Energy=                    0.058776
 Thermal correction to Enthalpy=                  0.059720
 Thermal correction to Gibbs Free Energy=         0.032202
 Sum of electronic and zero-point Energies=           -116.655339
 Sum of electronic and thermal Energies=              -116.651556
 Sum of electronic and thermal Enthalpies=            -116.650612
 Sum of electronic and thermal Free Energies=         -116.678130

                     E (Thermal)             CV                S
                      KCal/Mol        Cal/Mol-Kelvin    Cal/Mol-Kelvin
 Total                   36.882             11.768             57.916
 Electronic               0.000              0.000              0.000
 Translational            0.889              2.981             36.989
 Rotational               0.889              2.981             18.082
 Vibrational             35.105              5.806              2.845
 Vibration     1          0.745              1.526              1.064
 Vibration     2          0.745              1.526              1.064

 Optimization completed.
    -- Stationary point found.
 Normal termination of Gaussian 16 at Tue Jun 14 20:55:49 2022.
