 Gaussian 16, Revision B.01,

 ---------------------------------------
 # b3lyp/gen opt freq CPHF(Grid=OneStep)
 ---------------------------------------

 ---------------------
 allene, B3LYP/pcseg-2
 ---------------------
 Symbolic Z-matrix:
 Charge =  0 Multiplicity = 1

 SCF Done:  E(RB3LYP) =  -116.710331640     A.U. after   11 cycles
 Optimization completed.
    -- Stationary point found.
 Normal termination of Gaussian 16 at Sun Oct  1 00:02:28 2023.

 ------------------------------------------------------------------
 #N Geom=AllCheck Guess=TCheck SCRF=Check GenChk RB3LYP/ChkBas Freq
 ------------------------------------------------------------------

 Structure from the checkpoint file:  "allene.chk"
 ---------------------
 allene, B3LYP/pcseg-2
 ---------------------
 Charge =  0 Multiplicity = 1

 SCF Done:  E(RB3LYP) =  -116.710331640     A.U. after    1 cycles

  Exact polarizability:  24.900  -0.000  24.900   0.000  -0.000  62.870
 Approx polarizability:  33.022  -0.000  33.022  -0.000  -0.000  98.425

                      1                      2                      3
                      E                      E                      E
 Frequencies --    373.7900               373.7900               877.1069
 Red. masses --      2.5098                 2.5098                 1.3061
 Frc consts  --      0.2066                 0.2066                 0.5920
 IR Inten    --      8.3504                 8.3504                59.7640

                      4                      5                      6
                      E                     B1                      E
 Frequencies --    877.1069               883.9675              1019.7836
 Red. masses --      1.3061                 1.0078                 1.5305
 Frc consts  --      0.5920                 0.4640                 0.9378
 IR Inten    --     59.7640                 0.0000                 0.5829

                      7                      8                      9
                      E                     A1                     B2
 Frequencies --   1019.7836              1111.1983              1428.6857
 Red. masses --      1.5305                 2.4364                 1.0801
 Frc consts  --      0.9378                 1.7725                 1.2990
 IR Inten    --      0.5829                 0.0000                 4.3087

                     10                     11                     12
                     A1                     B2                     B2
 Frequencies --   1485.0156              2041.4749              3123.6757
 Red. masses --      1.4041                 9.5218                 1.0577
 Frc consts  --      1.8244                23.3807                 6.0807
 IR Inten    --      0.0000                90.9346                 1.8832

                     13                     14                     15
                     A1                      E                      E
 Frequencies --   3127.8890              3197.7313              3197.7313
 Red. masses --      1.0580                 1.1147                 1.1147
 Frc consts  --      6.0988                 6.7156                 6.7156
 IR Inten    --      0.0000                 0.9546                 0.9546

 - Thermochemistry -
 -------------------
 Temperature   298.150 Kelvin.  Pressure   1.00000 Atm.
 Atom     1 has atomic number  6 and mass  12.00000

 Molecular mass:    40.03130 amu.
 Principal axes and moments of inertia in atomic units:
                           1         2         3
     Eigenvalues --    12.31894 201.01784 201.01784
           X           -0.00000   0.42806   0.90375
           Y           -0.00000   0.90375  -0.42806
           Z            1.00000   0.00000   0.00000
 This molecule is a prolate symmetric top.
 Rotational symmetry number  4.
 Rotational temperatures (Kelvin)      7.03096     0.43088     0.43088
 Rotational constants (GHZ):         146.50136     8.97802     8.97802
 Zero-point vibrational energy     144381.7 (Joules/Mol)
                                   34.50805 (Kcal/Mol)
 Warning -- explicit consideration of   2 degrees of freedom as
           vibrations may cause significant error
 Vibrational temperatures:    537.80   537.80  1261.96  1261.96  1271.83
          (Kelvin)           1467.24  1467.24  1598.77  2055.56  2136.61
                             2937.23  4494.27  4500.33  4600.82  4600.82

 Zero-point correction=                           0.054992 (Hartree/Particle)
 Thermal correction to Energy=                    0.058776
 Thermal correction to Enthalpy=                  0.059720
 Thermal correction to Gibbs Free Energy=         0.032202
 Sum of electronic and zero-point Energies=           -116.655340
 Sum of electronic and thermal Energies=              -116.651556
 Sum of electronic and thermal Enthalpies=            -116.650612
 Sum of electronic and thermal Free Energies=         -116.678130

                     E (Thermal)             CV                S
                      KCal/Mol        Cal/Mol-Kelvin    Cal/Mol-Kelvin
 Total                   36.882             11.768             57.916
 Electronic               0.000              0.000              0.000
 Translational            0.889              2.981             36.989
 Rotational               0.889              2.981             18.082
 Vibrational             35.105              5.806              2.845
 Vibration     1          0.745              1.526              1.064
 Vibration     2          0.745              1.526              1.064

 Optimization completed.
    -- Stationary point found.
 Normal termination of Gaussian 16 at Sun Oct  1 00:03:19 2023.
 Gaussian 16:  ES64L-G16RevB.01 20-Dec-2017

 ---------------------------------
 # rohf/gen geom=check guess=check
 ---------------------------------

 ------------------------
 allene, ROHF/cc-pVTZ-F12
 ------------------------
 Structure from the checkpoint file:  "allene.chk"
 Charge =  0 Multiplicity = 1

                         Standard orientation:
 ---------------------------------------------------------------------
 Center     Atomic      Atomic             Coordinates (Angstroms)
 Number     Number       Type             X           Y           Z
 ---------------------------------------------------------------------
      1          6           0        0.000000    0.000000    0.000000
      2          6           0        0.000000    0.000000    1.300081
      3          6           0        0.000000    0.000000   -1.300081
      4          1           0        0.000000    0.925050    1.863608
      5          1           0       -0.000000   -0.925050    1.863608
      6          1           0        0.925050   -0.000000   -1.863608
      7          1           0       -0.925050    0.000000   -1.863608
 ---------------------------------------------------------------------

 SCF Done:  E(ROHF) =  -115.913228379     A.U. after   10 cycles

 The electronic state is 1-A1.
 Alpha  occ. eigenvalues --  -11.26031 -11.23510 -11.23499  -1.07667  -0.96039
 Alpha  occ. eigenvalues --   -0.71677  -0.63148  -0.60853  -0.60853  -0.37975
 Alpha  occ. eigenvalues --   -0.37975
 Alpha virt. eigenvalues --    0.05234   0.05989   0.06848   0.06848   0.08632
 Alpha virt. eigenvalues --    0.09610   0.09610   0.12923   0.13380   0.13380
 Alpha virt. eigenvalues --    0.17568   0.17568   0.19713   0.20059   0.21297

 Mulliken charges and spin densities:
               1          2
     1  C   -0.090827  -0.000000
     2  C   -0.273952  -0.000000
     3  C   -0.273952  -0.000000
     4  H    0.159683  -0.000000
     5  H    0.159683  -0.000000
     6  H    0.159683  -0.000000
     7  H    0.159683  -0.000000
 Sum of Mulliken charges =  -0.00000  -0.00000

 Dipole moment (field-independent basis, Debye):
    X=              0.0000    Y=              0.0000    Z=              0.0000  Tot=              0.0000
 Quadrupole moment (field-independent basis, Debye-Ang):
   XX=            -19.8566   YY=            -19.8566   ZZ=            -15.4937
   XY=             -0.0000   XZ=             -0.0000   YZ=              0.0000

 Normal termination of Gaussian 16 at Sun Oct  1 00:03:33 2023.
