 Gaussian 16, Revision B.01,

 ---------------------------------------
 # b3lyp/gen opt freq CPHF(Grid=OneStep)
 ---------------------------------------

 -----------------------------
 methoxybenzene, B3LYP/pcseg-2
 -----------------------------
 Symbolic Z-matrix:
 Charge =  0 Multiplicity = 1

 SCF Done:  E(RB3LYP) =  -346.909978822     A.U. after   13 cycles
 Optimization completed.
    -- Stationary point found.
 Normal termination of Gaussian 16 at Sat Sep 30 01:36:08 2023.

 ------------------------------------------------------------------
 #N Geom=AllCheck Guess=TCheck SCRF=Check GenChk RB3LYP/ChkBas Freq
 ------------------------------------------------------------------

 Structure from the checkpoint file:  "anisole.chk"
 -----------------------------
 methoxybenzene, B3LYP/pcseg-2
 -----------------------------
 Charge =  0 Multiplicity = 1

 SCF Done:  E(RB3LYP) =  -346.909978822     A.U. after    1 cycles

  Exact polarizability:  96.605  10.441 104.984   0.000   0.000  52.168
 Approx polarizability: 151.826   5.784 161.328   0.000   0.000  79.718

                      1                      2                      3
                     A"                     A"                     A'
 Frequencies --     93.6173               205.1051               257.2223
 Red. masses --      3.1570                 1.6152                 3.0434
 Frc consts  --      0.0163                 0.0400                 0.1186
 IR Inten    --      4.3187                 0.0772                 2.4109

                      4                      5                      6
                     A"                     A"                     A'
 Frequencies --    267.6454               425.8632               448.5475
 Red. masses --      1.7941                 2.9849                 4.6787
 Frc consts  --      0.0757                 0.3189                 0.5546
 IR Inten    --      0.4321                 0.0029                 0.8798

                      7                      8                      9
                     A"                     A'                     A'
 Frequencies --    520.5939               561.8900               631.4472
 Red. masses --      2.7482                 5.0366                 6.4208
 Frc consts  --      0.4388                 0.9369                 1.5084
 IR Inten    --     10.4780                 6.5213                 0.4874

                     10                     11                     12
                     A"                     A"                     A'
 Frequencies --    706.7027               769.1584               800.4462
 Red. masses --      2.0813                 1.6916                 5.1848
 Frc consts  --      0.6124                 0.5896                 1.9572
 IR Inten    --     26.1943                62.6801                15.4161

                     13                     14                     15
                     A"                     A"                     A"
 Frequencies --    833.1596               902.1111               979.9802
 Red. masses --      1.2469                 1.4743                 1.3462
 Frc consts  --      0.5100                 0.7069                 0.7617
 IR Inten    --      0.1942                 7.1638                 0.0403

                     16                     17                     18
                     A"                     A'                     A'
 Frequencies --    995.6625              1014.7215              1044.2365
 Red. masses --      1.2694                 5.8341                 2.5630
 Frc consts  --      0.7414                 3.5393                 1.6466
 IR Inten    --      0.1186                 1.8073                 2.8200

                     19                     20                     21
                     A'                     A'                     A"
 Frequencies --   1069.4397              1105.4726              1172.4162
 Red. masses --      4.1662                 1.5415                 1.2740
 Frc consts  --      2.8074                 1.1099                 1.0318
 IR Inten    --     53.3477                10.6706                 0.8973

                     22                     23                     24
                     A'                     A'                     A'
 Frequencies --   1180.6307              1197.5442              1205.5738
 Red. masses --      1.1194                 1.1504                 1.4242
 Frc consts  --      0.9193                 0.9721                 1.2196
 IR Inten    --      3.1411                17.1079                 8.2701

                     25                     26                     27
                     A'                     A'                     A'
 Frequencies --   1276.2226              1335.6742              1362.1530
 Red. masses --      4.2573                 3.2388                 1.7001
 Frc consts  --      4.0855                 3.4044                 1.8586
 IR Inten    --    222.3806                28.0740                10.2877

                     28                     29                     30
                     A'                     A'                     A"
 Frequencies --   1477.1612              1490.9011              1492.9606
 Red. masses --      1.1896                 2.0158                 1.0465
 Frc consts  --      1.5293                 2.6400                 1.3743
 IR Inten    --      7.6797                 4.6445                 7.4262

                     31                     32                     33
                     A'                     A'                     A'
 Frequencies --   1507.0643              1532.8623              1625.1421
 Red. masses --      1.1096                 2.1817                 5.7571
 Frc consts  --      1.4848                 3.0203                 8.9586
 IR Inten    --     28.4506                85.0558                22.4245

                     34                     35                     36
                     A'                     A'                     A"
 Frequencies --   1642.8810              3008.1732              3063.9348
 Red. masses --      5.5678                 1.0346                 1.1057
 Frc consts  --      8.8542                 5.5161                 6.1157
 IR Inten    --     72.0638                51.2393                37.1371

                     37                     38                     39
                     A'                     A'                     A'
 Frequencies --   3134.8915              3169.4922              3176.5942
 Red. masses --      1.0989                 1.0854                 1.0890
 Frc consts  --      6.3631                 6.4241                 6.4745
 IR Inten    --     20.4808                 1.7178                10.5229

                     40                     41                     42
                     A'                     A'                     A'
 Frequencies --   3192.3927              3199.2650              3211.3969
 Red. masses --      1.0920                 1.0959                 1.0918
 Frc consts  --      6.5568                 6.6086                 6.6341
 IR Inten    --     18.2031                 9.5844                 5.3632

 - Thermochemistry -
 -------------------
 Temperature   298.150 Kelvin.  Pressure   1.00000 Atm.
 Atom     1 has atomic number  6 and mass  12.00000

 Molecular mass:   108.05751 amu.
 Principal axes and moments of inertia in atomic units:
                           1         2         3
     Eigenvalues --   355.292741151.796811495.65601
           X            0.49783   0.86728   0.00000
           Y            0.86728  -0.49783   0.00000
           Z           -0.00000  -0.00000   1.00000
 This molecule is an asymmetric top.
 Rotational symmetry number  1.
 Rotational temperatures (Kelvin)      0.24378     0.07520     0.05791
 Rotational constants (GHZ):           5.07959     1.56689     1.20666
 Zero-point vibrational energy     348641.8 (Joules/Mol)
                                   83.32738 (Kcal/Mol)
 Warning -- explicit consideration of   8 degrees of freedom as
           vibrations may cause significant error
 Vibrational temperatures:    134.69   295.10   370.09   385.08   612.72
          (Kelvin)            645.36   749.02   808.43   908.51  1016.79
                             1106.65  1151.66  1198.73  1297.94  1409.97
                             1432.54  1459.96  1502.42  1538.69  1590.53
                             1686.85  1698.66  1723.00  1734.55  1836.20
                             1921.74  1959.83  2125.31  2145.07  2148.04
                             2168.33  2205.45  2338.22  2363.74  4328.09
                             4408.32  4510.41  4560.19  4570.41  4593.14
                             4603.03  4620.48

 Zero-point correction=                           0.132791 (Hartree/Particle)
 Thermal correction to Energy=                    0.139672
 Thermal correction to Enthalpy=                  0.140616
 Thermal correction to Gibbs Free Energy=         0.101707
 Sum of electronic and zero-point Energies=           -346.777188
 Sum of electronic and thermal Energies=              -346.770307
 Sum of electronic and thermal Enthalpies=            -346.769362
 Sum of electronic and thermal Free Energies=         -346.808271

                     E (Thermal)             CV                S
                      KCal/Mol        Cal/Mol-Kelvin    Cal/Mol-Kelvin
 Total                   87.646             26.344             81.891
 Electronic               0.000              0.000              0.000
 Translational            0.889              2.981             39.949
 Rotational               0.889              2.981             27.906
 Vibrational             85.868             20.383             14.036
 Vibration     1          0.603              1.954              3.583
 Vibration     2          0.640              1.833              2.087
 Vibration     3          0.667              1.751              1.681
 Vibration     4          0.673              1.733              1.611
 Vibration     5          0.788              1.414              0.872
 Vibration     6          0.808              1.364              0.800
 Vibration     7          0.876              1.204              0.609
 Vibration     8          0.918              1.114              0.520

 Optimization completed.
    -- Stationary point found.
 Normal termination of Gaussian 16 at Sat Sep 30 02:02:02 2023.
 Gaussian 16:  ES64L-G16RevB.01 20-Dec-2017

 ---------------------------------
 # rohf/gen geom=check guess=check
 ---------------------------------

 --------------------------------
 methoxybenzene, ROHF/cc-pVTZ-F12
 --------------------------------
 Structure from the checkpoint file:  "anisole.chk"
 Charge =  0 Multiplicity = 1

                         Standard orientation:
 ---------------------------------------------------------------------
 Center     Atomic      Atomic             Coordinates (Angstroms)
 Number     Number       Type             X           Y           Z
 ---------------------------------------------------------------------
      1          6           0        0.000000    0.527058    0.000000
      2          6           0        0.921490   -0.519199    0.000000
      3          6           0        0.464609   -1.836091    0.000000
      4          6           0       -0.892537   -2.120153    0.000000
      5          6           0       -1.806661   -1.067525    0.000000
      6          6           0       -1.369039    0.245836    0.000000
      7          8           0        0.334896    1.848389    0.000000
      8          6           0        1.707483    2.201181    0.000000
      9          1           0        1.983158   -0.325351    0.000000
     10          1           0        1.186672   -2.641894    0.000000
     11          1           0       -1.237630   -3.144555    0.000000
     12          1           0       -2.868903   -1.272824    0.000000
     13          1           0       -2.067024    1.071365    0.000000
     14          1           0        1.738217    3.287062    0.000000
     15          1           0        2.217138    1.826227    0.891187
     16          1           0        2.217138    1.826227   -0.891187
 ---------------------------------------------------------------------

 SCF Done:  E(ROHF) =  -344.724336611     A.U. after   12 cycles

 The electronic state is 1-A'.
 Alpha  occ. eigenvalues --  -20.58167 -11.29853 -11.28321 -11.23688 -11.23543
 Alpha  occ. eigenvalues --  -11.22823 -11.22393 -11.22287  -1.40877  -1.14758
 Alpha  occ. eigenvalues --   -1.02245  -1.01449  -0.94170  -0.83300  -0.80765
 Alpha  occ. eigenvalues --   -0.72176  -0.66490  -0.66239  -0.65534  -0.61937
 Alpha  occ. eigenvalues --   -0.58978  -0.57740  -0.52709  -0.52552  -0.51288
 Alpha  occ. eigenvalues --   -0.48129  -0.46848  -0.34052  -0.31206
 Alpha virt. eigenvalues --    0.04208   0.04790   0.05376   0.06540   0.06759
 Alpha virt. eigenvalues --    0.06956   0.08758   0.09108   0.09608   0.10299
 Alpha virt. eigenvalues --    0.10722   0.10807   0.11194   0.12463   0.12526

 Mulliken charges and spin densities:
               1          2
     1  C    0.308476   0.000000
     2  C   -0.088853   0.000000
     3  C   -0.165136   0.000000
     4  C   -0.188807   0.000000
     5  C   -0.143183   0.000000
     6  C   -0.152192   0.000000
     7  O   -0.528374   0.000000
     8  C   -0.140467   0.000000
     9  H    0.140174   0.000000
    10  H    0.137023   0.000000
    11  H    0.139791   0.000000
    12  H    0.142124   0.000000
    13  H    0.164066   0.000000
    14  H    0.152663   0.000000
    15  H    0.111348   0.000000
    16  H    0.111348   0.000000
 Sum of Mulliken charges =  -0.00000   0.00000

 Dipole moment (field-independent basis, Debye):
    X=              1.3441    Y=             -0.0279    Z=             -0.0000  Tot=              1.3444
 Quadrupole moment (field-independent basis, Debye-Ang):
   XX=            -40.8407   YY=            -44.8127   ZZ=            -52.1127
   XY=              3.0944   XZ=              0.0000   YZ=              0.0000

 Normal termination of Gaussian 16 at Sat Sep 30 02:17:05 2023.
