 Gaussian 16, Revision B.01,
 Gaussian 16:  ES64L-G16RevB.01 20-Dec-2017

 --------------------
 # b3lyp/gen opt freq
 --------------------

 -----------------------------
 methoxybenzene, B3LYP/pcseg-2
 -----------------------------
 Symbolic Z-matrix:
 Charge =  0 Multiplicity = 1

 SCF Done:  E(RB3LYP) =  -346.909915130     A.U. after   13 cycles
 SCF Done:  E(RB3LYP) =  -346.909973817     A.U. after   10 cycles
 SCF Done:  E(RB3LYP) =  -346.909978131     A.U. after    8 cycles
 SCF Done:  E(RB3LYP) =  -346.909978821     A.U. after    7 cycles
 Optimization completed.
    -- Stationary point found.
 Normal termination of Gaussian 16 at Fri Jun 17 19:43:02 2022.

 ------------------------------------------------------------------
 #N Geom=AllCheck Guess=TCheck SCRF=Check GenChk RB3LYP/ChkBas Freq
 ------------------------------------------------------------------

 Structure from the checkpoint file:  "/wrk/irikura/Gau-17033.chk"
 -----------------------------
 methoxybenzene, B3LYP/pcseg-2
 -----------------------------
 Charge =  0 Multiplicity = 1

                         Standard orientation:
 ---------------------------------------------------------------------
 Center     Atomic      Atomic             Coordinates (Angstroms)
 Number     Number       Type             X           Y           Z
 ---------------------------------------------------------------------
      1          6           0        0.000000    0.527058    0.000000
      2          6           0        0.921490   -0.519199    0.000000
      3          6           0        0.464609   -1.836091    0.000000
      4          6           0       -0.892537   -2.120153    0.000000
      5          6           0       -1.806661   -1.067525    0.000000
      6          6           0       -1.369039    0.245836    0.000000
      7          8           0        0.334896    1.848389    0.000000
      8          6           0        1.707483    2.201181    0.000000
      9          1           0        1.983158   -0.325351    0.000000
     10          1           0        1.186672   -2.641894    0.000000
     11          1           0       -1.237630   -3.144555    0.000000
     12          1           0       -2.868903   -1.272824    0.000000
     13          1           0       -2.067024    1.071365    0.000000
     14          1           0        1.738217    3.287062    0.000000
     15          1           0        2.217138    1.826228    0.891187
     16          1           0        2.217138    1.826228   -0.891187
 ---------------------------------------------------------------------

 SCF Done:  E(RB3LYP) =  -346.909978821     A.U. after    1 cycles

 The electronic state is 1-A'.
 Alpha  occ. eigenvalues --  -19.15592 -10.23562 -10.22860 -10.17673 -10.17542
 Alpha  occ. eigenvalues --  -10.17363 -10.16955 -10.16751  -1.07041  -0.85576
 Alpha  occ. eigenvalues --   -0.76109  -0.74985  -0.69956  -0.61392  -0.59476
 Alpha  occ. eigenvalues --   -0.54230  -0.49007  -0.48436  -0.47578  -0.45044
 Alpha  occ. eigenvalues --   -0.42853  -0.41878  -0.38530  -0.37167  -0.36279
 Alpha  occ. eigenvalues --   -0.33265  -0.32848  -0.25993  -0.22882
 Alpha virt. eigenvalues --   -0.01573  -0.00044   0.01315   0.02859   0.04174
 Alpha virt. eigenvalues --    0.05891   0.06220   0.07297   0.07564   0.09271
 Alpha virt. eigenvalues --    0.10306   0.14324   0.14730   0.16601   0.17323

 Mulliken charges:
               1
     1  C    0.418224
     2  C   -0.127769
     3  C   -0.054622
     4  C   -0.042041
     5  C   -0.011468
     6  C   -0.087153
     7  O   -0.426426
     8  C    0.115736
     9  H    0.016254
    10  H    0.018132
    11  H    0.017410
    12  H    0.019987
    13  H    0.022839
    14  H    0.056169
    15  H    0.032364
    16  H    0.032364
 Sum of Mulliken charges =  -0.00000

 Dipole moment (field-independent basis, Debye):
    X=              1.3227    Y=              0.1552    Z=             -0.0000  Tot=              1.3318
 Quadrupole moment (field-independent basis, Debye-Ang):
   XX=            -41.4932   YY=            -44.8006   ZZ=            -51.4847
   XY=              3.0893   XZ=             -0.0000   YZ=              0.0000

  Exact polarizability:  96.606  10.442 104.985  -0.000  -0.000  52.167
 Approx polarizability: 151.826   5.784 161.328  -0.000  -0.000  79.718

                      1                      2                      3
                     A"                     A"                     A'
 Frequencies --     93.6227               205.1045               257.2212
 Red. masses --      3.1570                 1.6152                 3.0434
 Frc consts  --      0.0163                 0.0400                 0.1186
 IR Inten    --      4.3189                 0.0772                 2.4104

                      4                      5                      6
                     A"                     A"                     A'
 Frequencies --    267.6442               425.8625               448.5489
 Red. masses --      1.7941                 2.9849                 4.6788
 Frc consts  --      0.0757                 0.3189                 0.5546
 IR Inten    --      0.4322                 0.0029                 0.8797

                      7                      8                      9
                     A"                     A'                     A'
 Frequencies --    520.5944               561.8901               631.4477
 Red. masses --      2.7482                 5.0366                 6.4208
 Frc consts  --      0.4388                 0.9369                 1.5084
 IR Inten    --     10.4790                 6.5213                 0.4873

                     10                     11                     12
                     A"                     A"                     A'
 Frequencies --    706.7019               769.1571               800.4457
 Red. masses --      2.0812                 1.6917                 5.1848
 Frc consts  --      0.6124                 0.5897                 1.9572
 IR Inten    --     26.1987                62.6775                15.4170

                     13                     14                     15
                     A"                     A"                     A"
 Frequencies --    833.1566               902.1098               979.9789
 Red. masses --      1.2469                 1.4743                 1.3462
 Frc consts  --      0.5100                 0.7069                 0.7617
 IR Inten    --      0.1942                 7.1634                 0.0403

                     16                     17                     18
                     A"                     A'                     A'
 Frequencies --    995.6636              1014.7215              1044.2354
 Red. masses --      1.2694                 5.8342                 2.5630
 Frc consts  --      0.7414                 3.5394                 1.6467
 IR Inten    --      0.1185                 1.8069                 2.8205

                     19                     20                     21
                     A'                     A'                     A"
 Frequencies --   1069.4424              1105.4706              1172.4158
 Red. masses --      4.1661                 1.5415                 1.2740
 Frc consts  --      2.8074                 1.1099                 1.0318
 IR Inten    --     53.3510                10.6667                 0.8974

                     22                     23                     24
                     A'                     A'                     A'
 Frequencies --   1180.6301              1197.5432              1205.5741
 Red. masses --      1.1194                 1.1504                 1.4242
 Frc consts  --      0.9193                 0.9721                 1.2196
 IR Inten    --      3.1413                17.0996                 8.2725

                     25                     26                     27
                     A'                     A'                     A'
 Frequencies --   1276.2203              1335.6731              1362.1504
 Red. masses --      4.2572                 3.2385                 1.7002
 Frc consts  --      4.0853                 3.4040                 1.8587
 IR Inten    --    222.3497                28.0691                10.2908

                     28                     29                     30
                     A'                     A'                     A"
 Frequencies --   1477.1576              1490.8959              1492.9513
 Red. masses --      1.1896                 2.0154                 1.0465
 Frc consts  --      1.5294                 2.6394                 1.3743
 IR Inten    --      7.6650                 4.6582                 7.4257

                     31                     32                     33
                     A'                     A'                     A'
 Frequencies --   1507.0528              1532.8650              1625.1449
 Red. masses --      1.1097                 2.1817                 5.7572
 Frc consts  --      1.4849                 3.0204                 8.9587
 IR Inten    --     28.4791                85.0602                22.4267

                     34                     35                     36
                     A'                     A'                     A"
 Frequencies --   1642.8814              3008.1498              3063.9160
 Red. masses --      5.5679                 1.0346                 1.1057
 Frc consts  --      8.8543                 5.5160                 6.1156
 IR Inten    --     72.0705                51.1977                37.1378

                     37                     38                     39
                     A'                     A'                     A'
 Frequencies --   3134.8968              3169.4943              3176.5952
 Red. masses --      1.0989                 1.0854                 1.0890
 Frc consts  --      6.3631                 6.4241                 6.4745
 IR Inten    --     20.4958                 1.7185                10.5228

                     40                     41                     42
                     A'                     A'                     A'
 Frequencies --   3192.3905              3199.2605              3211.3949
 Red. masses --      1.0920                 1.0959                 1.0918
 Frc consts  --      6.5568                 6.6086                 6.6341
 IR Inten    --     18.2002                 9.5948                 5.3699

 - Thermochemistry -
 -------------------
 Temperature   298.150 Kelvin.  Pressure   1.00000 Atm.
 Atom     1 has atomic number  6 and mass  12.00000

 Molecular mass:   108.05751 amu.
 Principal axes and moments of inertia in atomic units:
                           1         2         3
     Eigenvalues --   355.292771151.796911495.65615
           X            0.49783   0.86728   0.00000
           Y            0.86728  -0.49783   0.00000
           Z           -0.00000  -0.00000   1.00000
 This molecule is an asymmetric top.
 Rotational symmetry number  1.
 Rotational temperatures (Kelvin)      0.24378     0.07520     0.05791
 Rotational constants (GHZ):           5.07959     1.56689     1.20666
 Zero-point vibrational energy     348641.3 (Joules/Mol)
                                   83.32727 (Kcal/Mol)
 Warning -- explicit consideration of   8 degrees of freedom as
           vibrations may cause significant error
 Vibrational temperatures:    134.70   295.10   370.08   385.08   612.72
          (Kelvin)            645.36   749.02   808.43   908.51  1016.79
                             1106.65  1151.66  1198.73  1297.93  1409.97
                             1432.54  1459.96  1502.42  1538.69  1590.53
                             1686.84  1698.66  1723.00  1734.55  1836.20
                             1921.74  1959.83  2125.30  2145.07  2148.02
                             2168.31  2205.45  2338.22  2363.74  4328.06
                             4408.29  4510.42  4560.20  4570.41  4593.14
                             4603.02  4620.48

 Zero-point correction=                           0.132790 (Hartree/Particle)
 Thermal correction to Energy=                    0.139672
 Thermal correction to Enthalpy=                  0.140616
 Thermal correction to Gibbs Free Energy=         0.101707
 Sum of electronic and zero-point Energies=           -346.777188
 Sum of electronic and thermal Energies=              -346.770307
 Sum of electronic and thermal Enthalpies=            -346.769363
 Sum of electronic and thermal Free Energies=         -346.808272

                     E (Thermal)             CV                S
                      KCal/Mol        Cal/Mol-Kelvin    Cal/Mol-Kelvin
 Total                   87.646             26.344             81.891
 Electronic               0.000              0.000              0.000
 Translational            0.889              2.981             39.949
 Rotational               0.889              2.981             27.906
 Vibrational             85.868             20.383             14.036
 Vibration     1          0.603              1.954              3.583
 Vibration     2          0.640              1.833              2.087
 Vibration     3          0.667              1.751              1.681
 Vibration     4          0.673              1.733              1.611
 Vibration     5          0.788              1.414              0.872
 Vibration     6          0.808              1.364              0.800
 Vibration     7          0.876              1.204              0.609
 Vibration     8          0.918              1.114              0.520

 Optimization completed.
    -- Stationary point found.
 Normal termination of Gaussian 16 at Fri Jun 17 19:50:17 2022.
