 Gaussian 16, Revision B.01,
 Gaussian 16:  ES64L-G16RevB.01 20-Dec-2017

 --------------------
 # b3lyp/gen opt freq
 --------------------

 ---------------------------------
 a,d-dibenzobenzene, B3LYP/pcseg-2
 ---------------------------------
 Symbolic Z-matrix:
 Charge =  0 Multiplicity = 1

 SCF Done:  E(RB3LYP) =  -539.725037152     A.U. after   24 cycles
 Optimization completed.
    -- Stationary point found.
 Normal termination of Gaussian 16 at Fri Jun 17 19:52:01 2022.

 ------------------------------------------------------------------
 #N Geom=AllCheck Guess=TCheck SCRF=Check GenChk RB3LYP/ChkBas Freq
 ------------------------------------------------------------------

 Structure from the checkpoint file:  "/wrk/irikura/Gau-18068.chk"
 ---------------------------------
 a,d-dibenzobenzene, B3LYP/pcseg-2
 ---------------------------------
 Charge =  0 Multiplicity = 1

                         Standard orientation:
 ---------------------------------------------------------------------
 Center     Atomic      Atomic             Coordinates (Angstroms)
 Number     Number       Type             X           Y           Z
 ---------------------------------------------------------------------
      1          6           0        0.000000    2.470944    1.401474
      2          6           0        0.000000    3.646229    0.710754
      3          6           0        0.000000    3.646229   -0.710754
      4          6           0        0.000000    2.470944   -1.401474
      5          6           0       -0.000000   -2.470944   -1.401474
      6          6           0       -0.000000   -3.646229   -0.710754
      7          6           0       -0.000000   -3.646229    0.710754
      8          6           0       -0.000000   -2.470944    1.401474
      9          6           0        0.000000    0.000000    1.398243
     10          6           0        0.000000    0.000000   -1.398243
     11          6           0        0.000000    1.218903    0.719805
     12          6           0        0.000000    1.218903   -0.719805
     13          6           0       -0.000000   -1.218903   -0.719805
     14          6           0       -0.000000   -1.218903    0.719805
     15          1           0        0.000000    2.470206    2.484242
     16          1           0        0.000000    4.588757    1.241824
     17          1           0        0.000000    4.588757   -1.241824
     18          1           0        0.000000    2.470206   -2.484242
     19          1           0       -0.000000   -2.470206   -2.484242
     20          1           0       -0.000000   -4.588757   -1.241824
     21          1           0       -0.000000   -4.588757    1.241824
     22          1           0       -0.000000   -2.470206    2.484242
     23          1           0        0.000000    0.000000    2.481890
     24          1           0        0.000000    0.000000   -2.481890
 ---------------------------------------------------------------------

 SCF Done:  E(RB3LYP) =  -539.725037152     A.U. after    1 cycles

 The electronic state is 1-AG.
 Alpha  occ. eigenvalues --  -10.18817 -10.18816 -10.18775 -10.18773 -10.17959
 Alpha  occ. eigenvalues --  -10.17959 -10.17942 -10.17942 -10.17932 -10.17932
 Alpha  occ. eigenvalues --  -10.17865 -10.17865 -10.17828 -10.17828  -0.88895
 Alpha  occ. eigenvalues --   -0.85745  -0.80844  -0.79049  -0.75814  -0.74487
 Alpha  occ. eigenvalues --   -0.70980  -0.65129  -0.62293  -0.60731  -0.59723
 Alpha  occ. eigenvalues --   -0.54551  -0.53009  -0.51216  -0.47060  -0.47017
 Alpha  occ. eigenvalues --   -0.45739  -0.45367  -0.43153  -0.42140  -0.41501
 Alpha  occ. eigenvalues --   -0.41003  -0.39577  -0.38530  -0.37174  -0.35354
 Alpha  occ. eigenvalues --   -0.34385  -0.33338  -0.31376  -0.30856  -0.26702
 Alpha  occ. eigenvalues --   -0.25007  -0.20494
 Alpha virt. eigenvalues --   -0.07378  -0.02668  -0.00936   0.01441   0.01740
 Alpha virt. eigenvalues --    0.02294   0.02494   0.04429   0.04444   0.05080
 Alpha virt. eigenvalues --    0.06451   0.06712   0.08699   0.09718   0.11859

 Mulliken charges:
               1
     1  C   -0.216543
     2  C   -0.006293
     3  C   -0.006293
     4  C   -0.216543
     5  C   -0.216543
     6  C   -0.006293
     7  C   -0.006293
     8  C   -0.216543
     9  C   -0.369820
    10  C   -0.369820
    11  C    0.395706
    12  C    0.395706
    13  C    0.395706
    14  C    0.395706
    15  H   -0.001481
    16  H    0.017199
    17  H    0.017199
    18  H   -0.001481
    19  H   -0.001481
    20  H    0.017199
    21  H    0.017199
    22  H   -0.001481
    23  H   -0.007357
    24  H   -0.007357
 Sum of Mulliken charges =  -0.00000

 Dipole moment (field-independent basis, Debye):
    X=             -0.0000    Y=             -0.0000    Z=             -0.0000  Tot=              0.0000
 Quadrupole moment (field-independent basis, Debye-Ang):
   XX=            -88.3536   YY=            -72.2080   ZZ=            -72.3852
   XY=             -0.0000   XZ=              0.0000   YZ=              0.0000

  Exact polarizability:  79.531   0.000 288.550  -0.000  -0.000 162.794
 Approx polarizability: 131.990   0.000 478.756   0.000  -0.000 305.579

                      1                      2                      3
                     B3U                    AU                     B1G
 Frequencies --     89.2489               119.9117               234.7994
 Red. masses --      4.9340                 3.6861                 4.8108
 Frc consts  --      0.0232                 0.0312                 0.1563
 IR Inten    --      1.3074                 0.0000                 0.0000

                      4                      5                      6
                     B1U                    B2G                    B3U
 Frequencies --    236.2168               267.5820               388.5539
 Red. masses --      4.4551                 3.7000                 3.2380
 Frc consts  --      0.1465                 0.1561                 0.2880
 IR Inten    --      1.4415                 0.0000                 0.0063

                      7                      8                      9
                     B3G                    AG                     B3U
 Frequencies --    396.9294               399.1827               479.4392
 Red. masses --      4.6065                 6.7041                 2.4104
 Frc consts  --      0.4276                 0.6294                 0.3264
 IR Inten    --      0.0000                 0.0000                25.3507

                     10                     11                     12
                     B1G                    AU                     B3G
 Frequencies --    486.0472               507.3213               537.0779
 Red. masses --      2.7484                 3.4837                 6.2116
 Frc consts  --      0.3825                 0.5283                 1.0557
 IR Inten    --      0.0000                 0.0000                 0.0000

                     13                     14                     15
                     B2G                    B2U                    AG
 Frequencies --    593.9764               619.1779               643.9812
 Red. masses --      3.2735                 6.8023                 6.6631
 Frc consts  --      0.6804                 1.5365                 1.6281
 IR Inten    --      0.0000                 8.2984                 0.0000

                     16                     17                     18
                     B1U                    B3U                    AU
 Frequencies --    663.6374               745.7276               761.3120
 Red. masses --      6.0592                 1.1930                 3.7236
 Frc consts  --      1.5723                 0.3909                 1.2716
 IR Inten    --      0.6409                86.2532                 0.0000

                     19                     20                     21
                     AG                     B1G                    B2G
 Frequencies --    766.0622               775.7490               786.4446
 Red. masses --      5.6444                 1.3410                 2.6534
 Frc consts  --      1.9516                 0.4755                 0.9669
 IR Inten    --      0.0000                 0.0000                 0.0000

                     22                     23                     24
                     B2U                    B2G                    AU
 Frequencies --    822.9061               849.7098               872.9552
 Red. masses --      3.6553                 1.2572                 1.5537
 Frc consts  --      1.4584                 0.5348                 0.6976
 IR Inten    --      0.1349                 0.0000                 0.0000

                     25                     26                     27
                     B3U                    B2G                    B1U
 Frequencies --    909.1679               922.2080               923.4621
 Red. masses --      1.4596                 1.8228                 5.5029
 Frc consts  --      0.7108                 0.9133                 2.7649
 IR Inten    --     58.2261                 0.0000                 1.8631

                     28                     29                     30
                     B3G                    B1G                    B3U
 Frequencies --    933.8517               984.4298               988.8273
 Red. masses --      5.4080                 1.3437                 1.3782
 Frc consts  --      2.7787                 0.7672                 0.7940
 IR Inten    --      0.0000                 0.0000                 6.0030

                     31                     32                     33
                     AU                     B2G                    B2U
 Frequencies --   1007.0109              1007.5090              1027.0205
 Red. masses --      1.3090                 1.3143                 2.3429
 Frc consts  --      0.7821                 0.7860                 1.4560
 IR Inten    --      0.0000                 0.0000                 7.7569

                     34                     35                     36
                     AG                     B3G                    B2U
 Frequencies --   1031.9907              1129.2372              1160.5352
 Red. masses --      2.4288                 2.2141                 1.4551
 Frc consts  --      1.5240                 1.6635                 1.1547
 IR Inten    --      0.0000                 0.0000                 1.5011

                     37                     38                     39
                     B1U                    B2U                    AG
 Frequencies --   1176.5411              1190.8021              1192.7497
 Red. masses --      1.3614                 1.3121                 1.0663
 Frc consts  --      1.1103                 1.0962                 0.8938
 IR Inten    --      6.8255                 1.4712                 0.0000

                     40                     41                     42
                     B3G                    AG                     B1U
 Frequencies --   1214.2177              1290.7383              1296.2843
 Red. masses --      1.2221                 3.0147                 2.0571
 Frc consts  --      1.0616                 2.9591                 2.0366
 IR Inten    --      0.0000                 0.0000                 5.6016

                     43                     44                     45
                     B3G                    B1U                    B2U
 Frequencies --   1299.1911              1343.0589              1377.1428
 Red. masses --      1.4801                 3.2009                 3.1710
 Frc consts  --      1.4719                 3.4018                 3.5433
 IR Inten    --      0.0000                 4.4896                 4.0144

                     46                     47                     48
                     B2U                    B3G                    AG
 Frequencies --   1414.2716              1421.3053              1426.6362
 Red. masses --      4.1673                 1.5446                 9.4834
 Frc consts  --      4.9110                 1.8384                11.3721
 IR Inten    --      1.3896                 0.0000                 0.0000

                     49                     50                     51
                     B2U                    B1U                    AG
 Frequencies --   1487.3227              1490.4244              1519.5443
 Red. masses --      1.9106                 2.6777                 2.5442
 Frc consts  --      2.4902                 3.5045                 3.4613
 IR Inten    --      1.3769                 1.3523                 0.0000

                     52                     53                     54
                     B2U                    AG                     B3G
 Frequencies --   1579.3120              1593.2859              1624.9425
 Red. masses --      4.9272                 7.1675                 5.0306
 Frc consts  --      7.2407                10.7203                 7.8261
 IR Inten    --      6.6166                 0.0000                 0.0000

                     55                     56                     57
                     B3G                    B1U                    B1U
 Frequencies --   1665.7876              1669.4421              3157.7141
 Red. masses --      5.9771                 5.6063                 1.0887
 Frc consts  --      9.7719                 9.2060                 6.3960
 IR Inten    --      0.0000                 4.5388                 8.1323

                     58                     59                     60
                     AG                     B3G                    B1U
 Frequencies --   3159.5501              3162.0631              3162.8471
 Red. masses --      1.0898                 1.0855                 1.0862
 Frc consts  --      6.4097                 6.3947                 6.4023
 IR Inten    --      0.0000                 0.0000                12.1563

                     61                     62                     63
                     B2U                    AG                     B3G
 Frequencies --   3166.4352              3167.8172              3179.7247
 Red. masses --      1.0876                 1.0876                 1.0934
 Frc consts  --      6.4245                 6.4306                 6.5137
 IR Inten    --      0.0001                 0.0000                 0.0000

                     64                     65                     66
                     B1U                    B2U                    AG
 Frequencies --   3179.9864              3191.7182              3192.0771
 Red. masses --      1.0935                 1.0968                 1.0967
 Frc consts  --      6.5151                 6.5828                 6.5841
 IR Inten    --     54.5911                48.0381                 0.0000

 - Thermochemistry -
 -------------------
 Temperature   298.150 Kelvin.  Pressure   1.00000 Atm.
 Atom     1 has atomic number  6 and mass  12.00000

 Molecular mass:   178.07825 amu.
 Principal axes and moments of inertia in atomic units:
                           1         2         3
     Eigenvalues --   835.021703971.115824806.13752
           X            0.00000   0.00000   1.00000
           Y            1.00000   0.00000  -0.00000
           Z            0.00000   1.00000   0.00000
 This molecule is an asymmetric top.
 Rotational symmetry number  4.
 Warning -- assumption of classical behavior for rotation
           may cause significant error
 Rotational temperatures (Kelvin)      0.10373     0.02181     0.01802
 Rotational constants (GHZ):           2.16131     0.45447     0.37551
 Zero-point vibrational energy     508784.5 (Joules/Mol)
                                  121.60243 (Kcal/Mol)
 Warning -- explicit consideration of  14 degrees of freedom as
           vibrations may cause significant error
 Vibrational temperatures:    128.41   172.53   337.82   339.86   384.99
          (Kelvin)            559.04   571.09   574.33   689.81   699.31
                              729.92   772.74   854.60   890.86   926.55
                              954.83  1072.94  1095.36  1102.19  1116.13
                             1131.52  1183.98  1222.54  1255.99  1308.09
                             1326.85  1328.66  1343.60  1416.37  1422.70
                             1448.86  1449.58  1477.65  1484.80  1624.72
                             1669.75  1692.78  1713.30  1716.10  1746.99
                             1857.08  1865.06  1869.25  1932.36  1981.40
                             2034.82  2044.94  2052.61  2139.93  2144.39
                             2186.29  2272.28  2292.38  2337.93  2396.70
                             2401.95  4543.25  4545.89  4549.50  4550.63
                             4555.79  4557.78  4574.91  4575.29  4592.17
                             4592.69

 Zero-point correction=                           0.193786 (Hartree/Particle)
 Thermal correction to Energy=                    0.203226
 Thermal correction to Enthalpy=                  0.204171
 Thermal correction to Gibbs Free Energy=         0.160299
 Sum of electronic and zero-point Energies=           -539.531251
 Sum of electronic and thermal Energies=              -539.521811
 Sum of electronic and thermal Enthalpies=            -539.520867
 Sum of electronic and thermal Free Energies=         -539.564739

                     E (Thermal)             CV                S
                      KCal/Mol        Cal/Mol-Kelvin    Cal/Mol-Kelvin
 Total                  127.526             40.592             92.336
 Electronic               0.000              0.000              0.000
 Translational            0.889              2.981             41.438
 Rotational               0.889              2.981             28.390
 Vibrational            125.749             34.631             22.509
 Vibration     1          0.602              1.957              3.676
 Vibration     2          0.609              1.933              3.102
 Vibration     3          0.655              1.788              1.842
 Vibration     4          0.655              1.785              1.831
 Vibration     5          0.673              1.733              1.612
 Vibration     6          0.757              1.495              1.006
 Vibration     7          0.763              1.477              0.974
 Vibration     8          0.765              1.472              0.966
 Vibration     9          0.836              1.296              0.712
 Vibration    10          0.842              1.281              0.694
 Vibration    11          0.863              1.234              0.640
 Vibration    12          0.892              1.168              0.572
 Vibration    13          0.952              1.045              0.460
 Vibration    14          0.979              0.991              0.418

 Optimization completed.
    -- Stationary point found.
 Normal termination of Gaussian 16 at Fri Jun 17 20:09:15 2022.
