 Gaussian 16, Revision B.01,

 ---------------------------------------
 # b3lyp/gen opt freq CPHF(Grid=OneStep)
 ---------------------------------------

 ---------------------------------
 a,d-dibenzobenzene, B3LYP/pcseg-2
 ---------------------------------
 Symbolic Z-matrix:
 Charge =  0 Multiplicity = 1

 SCF Done:  E(RB3LYP) =  -539.725037152     A.U. after   24 cycles
 Optimization completed.
    -- Stationary point found.
 Normal termination of Gaussian 16 at Sat Sep 30 17:31:52 2023.

 ------------------------------------------------------------------
 #N Geom=AllCheck Guess=TCheck SCRF=Check GenChk RB3LYP/ChkBas Freq
 ------------------------------------------------------------------

 Structure from the checkpoint file:  "anthracene.chk"
 ---------------------------------
 a,d-dibenzobenzene, B3LYP/pcseg-2
 ---------------------------------
 Charge =  0 Multiplicity = 1

 SCF Done:  E(RB3LYP) =  -539.725037152     A.U. after    1 cycles

  Exact polarizability:  79.534  -0.000 288.549   0.000  -0.000 162.795
 Approx polarizability: 131.990   0.000 478.756   0.000   0.000 305.579

                      1                      2                      3
                     B3U                    AU                     B1G
 Frequencies --     89.2529               119.9149               234.8007
 Red. masses --      4.9340                 3.6861                 4.8108
 Frc consts  --      0.0232                 0.0312                 0.1563
 IR Inten    --      1.3070                 0.0000                 0.0000

                      4                      5                      6
                     B1U                    B2G                    B3U
 Frequencies --    236.2152               267.5822               388.5542
 Red. masses --      4.4551                 3.7000                 3.2380
 Frc consts  --      0.1465                 0.1561                 0.2880
 IR Inten    --      1.4416                 0.0000                 0.0063

                      7                      8                      9
                     B3G                    AG                     B3U
 Frequencies --    396.9254               399.1836               479.4426
 Red. masses --      4.6064                 6.7041                 2.4104
 Frc consts  --      0.4276                 0.6294                 0.3264
 IR Inten    --      0.0000                 0.0000                25.3536

                     10                     11                     12
                     B1G                    AU                     B3G
 Frequencies --    486.0498               507.3205               537.0741
 Red. masses --      2.7484                 3.4837                 6.2116
 Frc consts  --      0.3826                 0.5283                 1.0557
 IR Inten    --      0.0000                 0.0000                 0.0000

                     13                     14                     15
                     B2G                    B2U                    AG
 Frequencies --    593.9768               619.1828               643.9902
 Red. masses --      3.2735                 6.8023                 6.6631
 Frc consts  --      0.6804                 1.5365                 1.6281
 IR Inten    --      0.0000                 8.2978                 0.0000

                     16                     17                     18
                     B1U                    B3U                    AU
 Frequencies --    663.6357               745.7315               761.3136
 Red. masses --      6.0592                 1.1930                 3.7237
 Frc consts  --      1.5723                 0.3909                 1.2716
 IR Inten    --      0.6411                86.2552                 0.0000

                     19                     20                     21
                     AG                     B1G                    B2G
 Frequencies --    766.0638               775.7532               786.4462
 Red. masses --      5.6444                 1.3410                 2.6534
 Frc consts  --      1.9516                 0.4755                 0.9669
 IR Inten    --      0.0000                 0.0000                 0.0000

                     22                     23                     24
                     B2U                    B2G                    AU
 Frequencies --    822.9089               849.7117               872.9560
 Red. masses --      3.6553                 1.2572                 1.5537
 Frc consts  --      1.4584                 0.5348                 0.6976
 IR Inten    --      0.1349                 0.0000                 0.0000

                     25                     26                     27
                     B3U                    B2G                    B1U
 Frequencies --    909.1700               922.2080               923.4615
 Red. masses --      1.4596                 1.8227                 5.5029
 Frc consts  --      0.7109                 0.9133                 2.7649
 IR Inten    --     58.2361                 0.0000                 1.8635

                     28                     29                     30
                     B3G                    B1G                    B3U
 Frequencies --    933.8507               984.4309               988.8281
 Red. masses --      5.4081                 1.3437                 1.3782
 Frc consts  --      2.7787                 0.7672                 0.7940
 IR Inten    --      0.0000                 0.0000                 6.0067

                     31                     32                     33
                     AU                     B2G                    B2U
 Frequencies --   1007.0099              1007.5081              1027.0235
 Red. masses --      1.3090                 1.3143                 2.3429
 Frc consts  --      0.7821                 0.7860                 1.4560
 IR Inten    --      0.0000                 0.0000                 7.7568

                     34                     35                     36
                     AG                     B3G                    B2U
 Frequencies --   1031.9938              1129.2393              1160.5505
 Red. masses --      2.4288                 2.2140                 1.4551
 Frc consts  --      1.5241                 1.6634                 1.1547
 IR Inten    --      0.0000                 0.0000                 1.5001

                     37                     38                     39
                     B1U                    B2U                    AG
 Frequencies --   1176.5445              1190.8070              1192.7536
 Red. masses --      1.3614                 1.3122                 1.0663
 Frc consts  --      1.1103                 1.0963                 0.8938
 IR Inten    --      6.8272                 1.4715                 0.0000

                     40                     41                     42
                     B3G                    AG                     B1U
 Frequencies --   1214.2342              1290.7461              1296.2901
 Red. masses --      1.2221                 3.0147                 2.0572
 Frc consts  --      1.0616                 2.9592                 2.0367
 IR Inten    --      0.0000                 0.0000                 5.6013

                     43                     44                     45
                     B3G                    B1U                    B2U
 Frequencies --   1299.1964              1343.0643              1377.1473
 Red. masses --      1.4800                 3.2005                 3.1710
 Frc consts  --      1.4719                 3.4015                 3.5433
 IR Inten    --      0.0000                 4.4888                 4.0108

                     46                     47                     48
                     B2U                    B3G                    AG
 Frequencies --   1414.2755              1421.3074              1426.6371
 Red. masses --      4.1671                 1.5446                 9.4829
 Frc consts  --      4.9108                 1.8384                11.3715
 IR Inten    --      1.3909                 0.0000                 0.0000

                     49                     50                     51
                     B2U                    B1U                    AG
 Frequencies --   1487.3253              1490.4320              1519.5509
 Red. masses --      1.9106                 2.6778                 2.5442
 Frc consts  --      2.4901                 3.5047                 3.4613
 IR Inten    --      1.3757                 1.3507                 0.0000

                     52                     53                     54
                     B2U                    AG                     B3G
 Frequencies --   1579.3151              1593.2843              1624.9432
 Red. masses --      4.9269                 7.1674                 5.0305
 Frc consts  --      7.2404                10.7201                 7.8259
 IR Inten    --      6.6083                 0.0000                 0.0000

                     55                     56                     57
                     B3G                    B1U                    B1U
 Frequencies --   1665.7864              1669.4413              3157.7478
 Red. masses --      5.9769                 5.6063                 1.0887
 Frc consts  --      9.7717                 9.2059                 6.3962
 IR Inten    --      0.0000                 4.5360                 8.1576

                     58                     59                     60
                     AG                     B3G                    B1U
 Frequencies --   3159.5837              3162.0727              3162.8500
 Red. masses --      1.0898                 1.0855                 1.0862
 Frc consts  --      6.4098                 6.3947                 6.4023
 IR Inten    --      0.0000                 0.0000                12.1397

                     61                     62                     63
                     B2U                    AG                     B3G
 Frequencies --   3166.4481              3167.8221              3179.7308
 Red. masses --      1.0876                 1.0876                 1.0935
 Frc consts  --      6.4246                 6.4306                 6.5137
 IR Inten    --      0.0001                 0.0000                 0.0000

                     64                     65                     66
                     B1U                    B2U                    AG
 Frequencies --   3179.9914              3191.7205              3192.0792
 Red. masses --      1.0935                 1.0968                 1.0967
 Frc consts  --      6.5151                 6.5829                 6.5841
 IR Inten    --     54.5723                48.0429                 0.0000

 - Thermochemistry -
 -------------------
 Temperature   298.150 Kelvin.  Pressure   1.00000 Atm.
 Atom     1 has atomic number  6 and mass  12.00000

 Molecular mass:   178.07825 amu.
 Principal axes and moments of inertia in atomic units:
                           1         2         3
     Eigenvalues --   835.021703971.115824806.13752
           X            0.00000   0.00000   1.00000
           Y            1.00000   0.00000  -0.00000
           Z            0.00000   1.00000   0.00000
 This molecule is an asymmetric top.
 Rotational symmetry number  4.
 Warning -- assumption of classical behavior for rotation
           may cause significant error
 Rotational temperatures (Kelvin)      0.10373     0.02181     0.01802
 Rotational constants (GHZ):           2.16131     0.45447     0.37551
 Zero-point vibrational energy     508786.1 (Joules/Mol)
                                  121.60279 (Kcal/Mol)
 Warning -- explicit consideration of  14 degrees of freedom as
           vibrations may cause significant error
 Vibrational temperatures:    128.41   172.53   337.83   339.86   384.99
          (Kelvin)            559.04   571.09   574.34   689.81   699.32
                              729.92   772.73   854.60   890.87   926.56
                              954.82  1072.94  1095.36  1102.19  1116.14
                             1131.52  1183.98  1222.55  1255.99  1308.09
                             1326.85  1328.66  1343.60  1416.38  1422.70
                             1448.86  1449.58  1477.66  1484.81  1624.72
                             1669.77  1692.79  1713.31  1716.11  1747.01
                             1857.10  1865.07  1869.25  1932.37  1981.41
                             2034.83  2044.94  2052.61  2139.93  2144.40
                             2186.29  2272.28  2292.38  2337.93  2396.70
                             2401.95  4543.29  4545.94  4549.52  4550.64
                             4555.81  4557.79  4574.92  4575.30  4592.17
                             4592.69

 Zero-point correction=                           0.193786 (Hartree/Particle)
 Thermal correction to Energy=                    0.203227
 Thermal correction to Enthalpy=                  0.204171
 Thermal correction to Gibbs Free Energy=         0.160299
 Sum of electronic and zero-point Energies=           -539.531251
 Sum of electronic and thermal Energies=              -539.521810
 Sum of electronic and thermal Enthalpies=            -539.520866
 Sum of electronic and thermal Free Energies=         -539.564738

                     E (Thermal)             CV                S
                      KCal/Mol        Cal/Mol-Kelvin    Cal/Mol-Kelvin
 Total                  127.527             40.592             92.336
 Electronic               0.000              0.000              0.000
 Translational            0.889              2.981             41.438
 Rotational               0.889              2.981             28.390
 Vibrational            125.749             34.630             22.508
 Vibration     1          0.602              1.957              3.676
 Vibration     2          0.609              1.933              3.102
 Vibration     3          0.655              1.788              1.842
 Vibration     4          0.655              1.785              1.831
 Vibration     5          0.673              1.733              1.612
 Vibration     6          0.757              1.495              1.006
 Vibration     7          0.763              1.477              0.974
 Vibration     8          0.765              1.472              0.966
 Vibration     9          0.836              1.296              0.712
 Vibration    10          0.842              1.281              0.694
 Vibration    11          0.863              1.234              0.640
 Vibration    12          0.892              1.168              0.572
 Vibration    13          0.952              1.045              0.460
 Vibration    14          0.979              0.991              0.418

 Optimization completed.
    -- Stationary point found.
 Normal termination of Gaussian 16 at Sat Sep 30 18:32:12 2023.
 Gaussian 16:  ES64L-G16RevB.01 20-Dec-2017

 ---------------------------------
 # rohf/gen geom=check guess=check
 ---------------------------------

 ------------------------------------
 a,d-dibenzobenzene, ROHF/cc-pVTZ-F12
 ------------------------------------
 Structure from the checkpoint file:  "anthracene.chk"
 Charge =  0 Multiplicity = 1

                         Standard orientation:
 ---------------------------------------------------------------------
 Center     Atomic      Atomic             Coordinates (Angstroms)
 Number     Number       Type             X           Y           Z
 ---------------------------------------------------------------------
      1          6           0       -0.000000    2.470944    1.401474
      2          6           0       -0.000000    3.646229    0.710754
      3          6           0        0.000000    3.646229   -0.710754
      4          6           0        0.000000    2.470944   -1.401474
      5          6           0       -0.000000   -2.470944   -1.401474
      6          6           0       -0.000000   -3.646229   -0.710754
      7          6           0       -0.000000   -3.646229    0.710754
      8          6           0       -0.000000   -2.470944    1.401474
      9          6           0       -0.000000    0.000000    1.398243
     10          6           0        0.000000    0.000000   -1.398243
     11          6           0       -0.000000    1.218903    0.719805
     12          6           0        0.000000    1.218903   -0.719805
     13          6           0       -0.000000   -1.218903   -0.719805
     14          6           0       -0.000000   -1.218903    0.719805
     15          1           0       -0.000000    2.470206    2.484242
     16          1           0       -0.000000    4.588757    1.241824
     17          1           0        0.000000    4.588757   -1.241824
     18          1           0        0.000000    2.470206   -2.484242
     19          1           0       -0.000000   -2.470206   -2.484242
     20          1           0       -0.000000   -4.588757   -1.241824
     21          1           0       -0.000000   -4.588757    1.241824
     22          1           0       -0.000000   -2.470206    2.484242
     23          1           0       -0.000000    0.000000    2.481890
     24          1           0        0.000000    0.000000   -2.481890
 ---------------------------------------------------------------------

 SCF Done:  E(ROHF) =  -536.196025392     A.U. after   11 cycles

 The electronic state is 1-AG.
 Alpha  occ. eigenvalues --  -11.24522 -11.24516 -11.24428 -11.24417 -11.23714
 Alpha  occ. eigenvalues --  -11.23714 -11.23695 -11.23694 -11.23671 -11.23670
 Alpha  occ. eigenvalues --  -11.23547 -11.23547 -11.23469 -11.23469  -1.18853
 Alpha  occ. eigenvalues --   -1.14896  -1.08685  -1.06635  -1.02497  -1.00744
 Alpha  occ. eigenvalues --   -0.96334  -0.88083  -0.84492  -0.81726  -0.81145
 Alpha  occ. eigenvalues --   -0.74650  -0.71209  -0.68976  -0.65043  -0.64341
 Alpha  occ. eigenvalues --   -0.62833  -0.61899  -0.59339  -0.58149  -0.57552
 Alpha  occ. eigenvalues --   -0.54959  -0.54848  -0.53954  -0.49786  -0.49618
 Alpha  occ. eigenvalues --   -0.48825  -0.47213  -0.41564  -0.40820  -0.34893
 Alpha  occ. eigenvalues --   -0.31131  -0.25991
 Alpha virt. eigenvalues --    0.04267   0.04420   0.04509   0.04814   0.05703
 Alpha virt. eigenvalues --    0.05718   0.07262   0.07335   0.07417   0.08483
 Alpha virt. eigenvalues --    0.09033   0.09185   0.09242   0.09549   0.09693

 Mulliken charges and spin densities:
               1          2
     1  C   -0.237949   0.000000
     2  C   -0.164680   0.000000
     3  C   -0.164680   0.000000
     4  C   -0.237949   0.000000
     5  C   -0.237949   0.000000
     6  C   -0.164680   0.000000
     7  C   -0.164680   0.000000
     8  C   -0.237949   0.000000
     9  C   -0.402652   0.000000
    10  C   -0.402652   0.000000
    11  C    0.272323   0.000000
    12  C    0.272323   0.000000
    13  C    0.272323   0.000000
    14  C    0.272323   0.000000
    15  H    0.132798   0.000000
    16  H    0.138387   0.000000
    17  H    0.138387   0.000000
    18  H    0.132798   0.000000
    19  H    0.132798   0.000000
    20  H    0.138387   0.000000
    21  H    0.138387   0.000000
    22  H    0.132798   0.000000
    23  H    0.120895   0.000000
    24  H    0.120895   0.000000
 Sum of Mulliken charges =  -0.00000   0.00000

 Dipole moment (field-independent basis, Debye):
    X=             -0.0000    Y=             -0.0000    Z=              0.0000  Tot=              0.0000
 Quadrupole moment (field-independent basis, Debye-Ang):
   XX=            -90.3203   YY=            -71.5887   ZZ=            -71.9116
   XY=              0.0000   XZ=             -0.0000   YZ=             -0.0000

 Normal termination of Gaussian 16 at Sat Sep 30 18:53:28 2023.
