 Gaussian 16, Revision B.01,

 ---------------------------------------
 # b3lyp/gen opt freq CPHF(Grid=OneStep)
 ---------------------------------------

 ------------------------
 o-benzyne, B3LYP/pcseg-2
 ------------------------
 Symbolic Z-matrix:
 Charge =  0 Multiplicity = 1

 SCF Done:  E(RB3LYP) =  -231.000817960     A.U. after   12 cycles
 Optimization completed.
    -- Stationary point found.
 Normal termination of Gaussian 16 at Fri Sep 29 19:30:15 2023.

 ------------------------------------------------------------------
 #N Geom=AllCheck Guess=TCheck SCRF=Check GenChk RB3LYP/ChkBas Freq
 ------------------------------------------------------------------

 Structure from the checkpoint file:  "benzyne.chk"
 ------------------------
 o-benzyne, B3LYP/pcseg-2
 ------------------------
 Charge =  0 Multiplicity = 1

 SCF Done:  E(RB3LYP) =  -231.000817960     A.U. after    1 cycles

  Exact polarizability:  36.746   0.000  82.670   0.000   0.000  71.038
 Approx polarizability:  55.212   0.000 166.997   0.000  -0.000 121.888

                      1                      2                      3
                     B1                     B2                     A2
 Frequencies --    396.0247               432.6878               456.4233
 Red. masses --      2.6886                10.5690                 8.2762
 Frc consts  --      0.2484                 1.1658                 1.0158
 IR Inten    --      6.2814               113.1469                 0.0000

                      4                      5                      6
                     A2                     A1                     B1
 Frequencies --    607.3833               626.3160               755.0496
 Red. masses --      3.2233                 7.2466                 1.2288
 Frc consts  --      0.7006                 1.6748                 0.4127
 IR Inten    --      0.0000                 0.3671                84.5189

                      7                      8                      9
                     B2                     A2                     B1
 Frequencies --    851.5424               875.7594               933.3874
 Red. masses --      6.2465                 1.2658                 1.3778
 Frc consts  --      2.6687                 0.5720                 0.7073
 IR Inten    --     32.9179                 0.0000                 0.0003

                     10                     11                     12
                     A2                     A1                     A1
 Frequencies --    980.4681              1000.1517              1076.1067
 Red. masses --      1.3077                 2.4713                 4.3212
 Frc consts  --      0.7407                 1.4565                 2.9482
 IR Inten    --      0.0000                 7.5797                22.3049

                     13                     14                     15
                     B2                     A1                     B2
 Frequencies --   1109.5144              1163.1635              1276.1483
 Red. masses --      1.4951                 1.1969                 1.4816
 Frc consts  --      1.0844                 0.9541                 1.4216
 IR Inten    --      1.5319                 0.0003                 0.0759

                     16                     17                     18
                     A1                     B2                     B2
 Frequencies --   1308.0753              1427.2228              1467.4952
 Red. masses --      2.3816                 2.7964                 3.1047
 Frc consts  --      2.4009                 3.3561                 3.9394
 IR Inten    --      1.6114                 1.6934                14.8832

                     19                     20                     21
                     A1                     A1                     B2
 Frequencies --   1485.6189              2013.1644              3162.9576
 Red. masses --      2.5694                11.2498                 1.0854
 Frc consts  --      3.3412                26.8628                 6.3977
 IR Inten    --      0.9048                 0.1906                 1.0126

                     22                     23                     24
                     A1                     B2                     A1
 Frequencies --   3178.1446              3201.8213              3204.9840
 Red. masses --      1.0910                 1.0930                 1.0949
 Frc consts  --      6.4929                 6.6020                 6.6264
 IR Inten    --      3.7026                23.5562                 6.6290

 - Thermochemistry -
 -------------------
 Temperature   298.150 Kelvin.  Pressure   1.00000 Atm.
 Atom     1 has atomic number  6 and mass  12.00000

 Molecular mass:    76.03130 amu.
 Principal axes and moments of inertia in atomic units:
                           1         2         3
     Eigenvalues --   254.87702 313.71184 568.58886
           X            0.00000   0.00000   1.00000
           Y            1.00000   0.00000  -0.00000
           Z            0.00000   1.00000   0.00000
 This molecule is an asymmetric top.
 Rotational symmetry number  2.
 Rotational temperatures (Kelvin)      0.33983     0.27609     0.15233
 Rotational constants (GHZ):           7.08083     5.75286     3.17407
 Zero-point vibrational energy     197321.7 (Joules/Mol)
                                   47.16102 (Kcal/Mol)
 Warning -- explicit consideration of   4 degrees of freedom as
           vibrations may cause significant error
 Vibrational temperatures:    569.79   622.54   656.69   873.89   901.13
          (Kelvin)           1086.35  1225.18  1260.02  1342.94  1410.67
                             1439.00  1548.28  1596.34  1673.53  1836.09
                             1882.03  2053.46  2111.40  2137.47  2896.49
                             4550.79  4572.64  4606.71  4611.26

 Zero-point correction=                           0.075156 (Hartree/Particle)
 Thermal correction to Energy=                    0.079593
 Thermal correction to Enthalpy=                  0.080538
 Thermal correction to Gibbs Free Energy=         0.048486
 Sum of electronic and zero-point Energies=           -230.925662
 Sum of electronic and thermal Energies=              -230.921225
 Sum of electronic and thermal Enthalpies=            -230.920280
 Sum of electronic and thermal Free Energies=         -230.952332

                     E (Thermal)             CV                S
                      KCal/Mol        Cal/Mol-Kelvin    Cal/Mol-Kelvin
 Total                   49.946             16.620             67.458
 Electronic               0.000              0.000              0.000
 Translational            0.889              2.981             38.901
 Rotational               0.889              2.981             23.945
 Vibrational             48.168             10.659              4.611
 Vibration     1          0.763              1.479              0.977
 Vibration     2          0.794              1.399              0.850
 Vibration     3          0.815              1.347              0.777
 Vibration     4          0.966              1.016              0.437

 Optimization completed.
    -- Stationary point found.
 Normal termination of Gaussian 16 at Fri Sep 29 19:34:41 2023.
 Gaussian 16:  ES64L-G16RevB.01 20-Dec-2017

 ---------------------------------
 # rohf/gen geom=check guess=check
 ---------------------------------

 ---------------------------
 o-benzyne, ROHF/cc-pVTZ-F12
 ---------------------------
 Structure from the checkpoint file:  "benzyne.chk"
 Charge =  0 Multiplicity = 1

                         Standard orientation:
 ---------------------------------------------------------------------
 Center     Atomic      Atomic             Coordinates (Angstroms)
 Number     Number       Type             X           Y           Z
 ---------------------------------------------------------------------
      1          6           0        0.000000    0.620516   -1.231021
      2          6           0       -0.000000   -0.620516   -1.231021
      3          6           0        0.000000    1.455581   -0.133617
      4          6           0       -0.000000   -1.455581   -0.133617
      5          6           0        0.000000    0.700553    1.053625
      6          6           0       -0.000000   -0.700553    1.053625
      7          1           0        0.000000    2.535408   -0.135434
      8          1           0       -0.000000   -2.535408   -0.135434
      9          1           0        0.000000    1.224514    2.001513
     10          1           0       -0.000000   -1.224514    2.001513
 ---------------------------------------------------------------------

 SCF Done:  E(ROHF) =  -229.476963755     A.U. after   12 cycles

 The electronic state is 1-A1.
 Alpha  occ. eigenvalues --  -11.27397 -11.27396 -11.25303 -11.25184 -11.24941
 Alpha  occ. eigenvalues --  -11.24628  -1.17845  -1.03250  -1.01863  -0.85107
 Alpha  occ. eigenvalues --   -0.79677  -0.69553  -0.64778  -0.63726  -0.55518
 Alpha  occ. eigenvalues --   -0.55073  -0.53163  -0.37669  -0.35787  -0.35550
 Alpha virt. eigenvalues --    0.04576   0.04768   0.05351   0.05806   0.07454
 Alpha virt. eigenvalues --    0.08016   0.08093   0.08913   0.09963   0.10209
 Alpha virt. eigenvalues --    0.10890   0.11046   0.12153   0.12434   0.12608

 Mulliken charges and spin densities:
               1          2
     1  C   -0.016251   0.000000
     2  C   -0.016251   0.000000
     3  C   -0.139515   0.000000
     4  C   -0.139515   0.000000
     5  C   -0.174411   0.000000
     6  C   -0.174411   0.000000
     7  H    0.178888   0.000000
     8  H    0.178888   0.000000
     9  H    0.151289   0.000000
    10  H    0.151289   0.000000
 Sum of Mulliken charges =  -0.00000   0.00000

 Dipole moment (field-independent basis, Debye):
    X=             -0.0000    Y=              0.0000    Z=              1.8333  Tot=              1.8333
 Quadrupole moment (field-independent basis, Debye-Ang):
   XX=            -38.9984   YY=            -29.1701   ZZ=            -35.9102
   XY=              0.0000   XZ=             -0.0000   YZ=              0.0000

 Normal termination of Gaussian 16 at Fri Sep 29 19:37:12 2023.
