 Gaussian 16, Revision B.01,
 Gaussian 16:  ES64L-G16RevB.01 20-Dec-2017

 --------------------
 # b3lyp/gen opt freq
 --------------------

 ---------------------
 benzyl, B3LYP/pcseg-2
 ---------------------
 Symbolic Z-matrix:
 Charge =  0 Multiplicity = 2

 SCF Done:  E(UB3LYP) =  -271.020132263     A.U. after   17 cycles
 SCF Done:  E(UB3LYP) =  -271.020215919     A.U. after   11 cycles
 Optimization completed.
    -- Stationary point found.
 Normal termination of Gaussian 16 at Thu Jun 16 07:56:03 2022.

 ------------------------------------------------------------------
 #N Geom=AllCheck Guess=TCheck SCRF=Check GenChk UB3LYP/ChkBas Freq
 ------------------------------------------------------------------

 Structure from the checkpoint file:  "/wrk/irikura/Gau-10478.chk"
 ---------------------
 benzyl, B3LYP/pcseg-2
 ---------------------
 Charge =  0 Multiplicity = 2

                         Standard orientation:
 ---------------------------------------------------------------------
 Center     Atomic      Atomic             Coordinates (Angstroms)
 Number     Number       Type             X           Y           Z
 ---------------------------------------------------------------------
      1          6           0        0.000000    0.000000    0.991663
      2          6           0        0.000000    1.213805    0.250608
      3          6           0        0.000000    1.207141   -1.128885
      4          6           0        0.000000   -0.000000   -1.831799
      5          6           0       -0.000000   -1.207141   -1.128885
      6          6           0       -0.000000   -1.213805    0.250608
      7          6           0        0.000000    0.000000    2.392188
      8          1           0        0.000000    2.152560    0.789326
      9          1           0        0.000000    2.144099   -1.669971
     10          1           0        0.000000   -0.000000   -2.912917
     11          1           0       -0.000000   -2.144099   -1.669971
     12          1           0       -0.000000   -2.152560    0.789326
     13          1           0        0.000000    0.924678    2.950608
     14          1           0       -0.000000   -0.924678    2.950608
 ---------------------------------------------------------------------

 SCF Done:  E(UB3LYP) =  -271.020215919     A.U. after    1 cycles

 The electronic state is 2-B1.
 Alpha  occ. eigenvalues --  -10.18750 -10.18125 -10.18035 -10.18016 -10.18013
 Alpha  occ. eigenvalues --  -10.17729 -10.17724  -0.86559  -0.78235  -0.75499
 Alpha  occ. eigenvalues --   -0.68369  -0.61194  -0.58716  -0.51916  -0.47563
 Alpha  occ. eigenvalues --   -0.46727  -0.42929  -0.42397  -0.40279  -0.38714
 Alpha  occ. eigenvalues --   -0.36175  -0.34396  -0.30302  -0.26955  -0.19130
 Alpha virt. eigenvalues --   -0.01923   0.00292   0.01675   0.03496   0.03670
 Alpha virt. eigenvalues --    0.06204   0.06491   0.09423   0.10337   0.11794
 Alpha virt. eigenvalues --    0.14110   0.14643   0.16469   0.18088   0.19703

  Beta  occ. eigenvalues --  -10.18994 -10.17907 -10.17901 -10.17662 -10.17661
  Beta  occ. eigenvalues --  -10.17636 -10.17071  -0.86167  -0.77436  -0.75188
  Beta  occ. eigenvalues --   -0.66595  -0.60991  -0.58203  -0.51580  -0.47280
  Beta  occ. eigenvalues --   -0.46477  -0.42848  -0.42089  -0.39796  -0.37573
  Beta  occ. eigenvalues --   -0.35927  -0.34303  -0.27837  -0.26045
  Beta virt. eigenvalues --   -0.09412  -0.01180   0.01731   0.01953   0.03644
  Beta virt. eigenvalues --    0.03689   0.06325   0.06512   0.09472   0.10412
  Beta virt. eigenvalues --    0.12275   0.14340   0.14652   0.17199   0.18088

 Mulliken charges and spin densities:
               1          2
     1  C    0.291823  -0.182240
     2  C   -0.125241   0.230467
     3  C   -0.012856  -0.121228
     4  C   -0.019502   0.273367
     5  C   -0.012856  -0.121228
     6  C   -0.125241   0.230467
     7  C   -0.174087   0.768264
     8  H    0.008123  -0.008138
     9  H    0.019729   0.004363
    10  H    0.022941  -0.012558
    11  H    0.019729   0.004363
    12  H    0.008123  -0.008138
    13  H    0.049658  -0.028881
    14  H    0.049658  -0.028881
 Sum of Mulliken charges =  -0.00000   1.00000

 Dipole moment (field-independent basis, Debye):
    X=              0.0000    Y=             -0.0000    Z=             -0.1509  Tot=              0.1509
 Quadrupole moment (field-independent basis, Debye-Ang):
   XX=            -46.7069   YY=            -37.7273   ZZ=            -38.3645
   XY=              0.0000   XZ=             -0.0000   YZ=              0.0000

  Exact polarizability:  45.913  -0.000  84.784   0.000   0.000 118.996
 Approx polarizability:  70.425   0.000 135.005   0.000  -0.000 191.419

                      1                      2                      3
                     B1                     B2                     A2
 Frequencies --    197.6608               359.4865               392.2801
 Red. masses --      3.3406                 2.3897                 2.2621
 Frc consts  --      0.0769                 0.1820                 0.2051
 IR Inten    --      1.4610                 0.1337                 0.0000

                      4                      5                      6
                     B1                     A2                     A1
 Frequencies --    479.3434               506.9549               535.7014
 Red. masses --      2.6516                 1.1252                 5.8935
 Frc consts  --      0.3590                 0.1704                 0.9965
 IR Inten    --     16.8251                 0.0000                 0.2154

                      7                      8                      9
                     B2                     B1                     B1
 Frequencies --    629.8709               686.4959               720.9502
 Red. masses --      6.4233                 1.7046                 1.2956
 Frc consts  --      1.5014                 0.4733                 0.3968
 IR Inten    --      0.0041                52.8027                 2.1286

                     10                     11                     12
                     B1                     A1                     A2
 Frequencies --    780.8692               833.4965               835.9892
 Red. masses --      2.0197                 4.5533                 1.2645
 Frc consts  --      0.7256                 1.8637                 0.5207
 IR Inten    --     60.3412                 0.3681                 0.0000

                     13                     14                     15
                     B1                     B2                     A2
 Frequencies --    908.6202               972.8662               987.8899
 Red. masses --      1.4605                 1.4843                 1.3612
 Frc consts  --      0.7104                 0.8277                 0.7827
 IR Inten    --      4.7918                 1.9883                 0.0000

                     16                     17                     18
                     A1                     B1                     A1
 Frequencies --    999.3824               999.4443              1037.6152
 Red. masses --      5.8467                 1.2950                 2.2147
 Frc consts  --      3.4406                 0.7621                 1.4049
 IR Inten    --      1.0514                 0.0171                 2.3594

                     19                     20                     21
                     B2                     B2                     A1
 Frequencies --   1118.9759              1176.3826              1187.0517
 Red. masses --      1.4409                 1.1433                 1.2435
 Frc consts  --      1.0630                 0.9322                 1.0323
 IR Inten    --      2.7734                 0.0452                 0.1561

                     22                     23                     24
                     A1                     B2                     B2
 Frequencies --   1290.6554              1327.9334              1358.7213
 Red. masses --      2.6686                 4.7467                 1.4508
 Frc consts  --      2.6191                 4.9316                 1.5781
 IR Inten    --      1.2685                 0.8337                 0.3233

                     25                     26                     27
                     B2                     A1                     A1
 Frequencies --   1477.8150              1495.7021              1505.7352
 Red. masses --      2.3437                 1.3047                 1.9879
 Frc consts  --      3.0157                 1.7197                 2.6554
 IR Inten    --      4.8768                 0.2007                10.2201

                     28                     29                     30
                     B2                     A1                     A1
 Frequencies --   1576.8641              1597.6202              3152.8008
 Red. masses --      4.0916                 4.6554                 1.0537
 Frc consts  --      5.9942                 7.0009                 6.1710
 IR Inten    --      0.9330                 0.8601                 4.4814

                     31                     32                     33
                     A1                     B2                     A1
 Frequencies --   3164.9343              3167.3368              3179.3887
 Red. masses --      1.0846                 1.0866                 1.0902
 Frc consts  --      6.4010                 6.4225                 6.4932
 IR Inten    --      7.4325                 0.4507                 4.9820

                     34                     35                     36
                     B2                     A1                     B2
 Frequencies --   3183.9795              3197.0611              3247.9340
 Red. masses --      1.0941                 1.0967                 1.1178
 Frc consts  --      6.5348                 6.6045                 6.9475
 IR Inten    --     32.5846                11.4529                 7.6662

 - Thermochemistry -
 -------------------
 Temperature   298.150 Kelvin.  Pressure   1.00000 Atm.
 Atom     1 has atomic number  6 and mass  12.00000

 Molecular mass:    91.05478 amu.
 Principal axes and moments of inertia in atomic units:
                           1         2         3
     Eigenvalues --   323.75823 663.47006 987.22829
           X            0.00000   0.00000   1.00000
           Y            0.00000   1.00000  -0.00000
           Z            1.00000   0.00000   0.00000
 This molecule is an asymmetric top.
 Rotational symmetry number  2.
 Rotational temperatures (Kelvin)      0.26753     0.13055     0.08773
 Rotational constants (GHZ):           5.57435     2.72015     1.82809
 Zero-point vibrational energy     300692.2 (Joules/Mol)
                                   71.86716 (Kcal/Mol)
 Warning -- explicit consideration of   6 degrees of freedom as
           vibrations may cause significant error
 Vibrational temperatures:    284.39   517.22   564.40   689.67   729.39
          (Kelvin)            770.75   906.24   987.71  1037.29  1123.50
                             1199.22  1202.80  1307.30  1399.74  1421.35
                             1437.89  1437.98  1492.90  1609.96  1692.55
                             1707.90  1856.97  1910.60  1954.90  2126.25
                             2151.98  2166.42  2268.76  2298.62  4536.18
                             4553.63  4557.09  4574.43  4581.04  4599.86
                             4673.05

 Zero-point correction=                           0.114528 (Hartree/Particle)
 Thermal correction to Energy=                    0.120188
 Thermal correction to Enthalpy=                  0.121133
 Thermal correction to Gibbs Free Energy=         0.085517
 Sum of electronic and zero-point Energies=           -270.905688
 Sum of electronic and thermal Energies=              -270.900028
 Sum of electronic and thermal Enthalpies=            -270.899083
 Sum of electronic and thermal Free Energies=         -270.934699

                     E (Thermal)             CV                S
                      KCal/Mol        Cal/Mol-Kelvin    Cal/Mol-Kelvin
 Total                   75.419             22.865             74.959
 Electronic               0.000              0.000              1.377
 Translational            0.889              2.981             39.439
 Rotational               0.889              2.981             25.475
 Vibrational             73.642             16.904              8.668
 Vibration     1          0.637              1.843              2.155
 Vibration     2          0.734              1.556              1.124
 Vibration     3          0.760              1.487              0.991
 Vibration     4          0.836              1.296              0.712
 Vibration     5          0.862              1.235              0.641
 Vibration     6          0.891              1.171              0.575

 Optimization completed.
    -- Stationary point found.
 Normal termination of Gaussian 16 at Thu Jun 16 08:01:37 2022.
