 Gaussian 16, Revision B.01,

 ---------------------------------------
 # b3lyp/gen opt freq CPHF(Grid=OneStep)
 ---------------------------------------

 ----------------------
 benzene, B3LYP/pcseg-2
 ----------------------
 Symbolic Z-matrix:
 Charge =  0 Multiplicity = 1

 SCF Done:  E(RB3LYP) =  -232.339846625     A.U. after   10 cycles
 Optimization completed.
    -- Stationary point found.
 Normal termination of Gaussian 16 at Sat Sep 30 10:07:20 2023.

 ------------------------------------------------------------------
 #N Geom=AllCheck Guess=TCheck SCRF=Check GenChk RB3LYP/ChkBas Freq
 ------------------------------------------------------------------

 Structure from the checkpoint file:  "benzene.chk"
 ----------------------
 benzene, B3LYP/pcseg-2
 ----------------------
 Charge =  0 Multiplicity = 1

 SCF Done:  E(RB3LYP) =  -232.339846625     A.U. after    1 cycles

  Exact polarizability:  78.439   0.000  78.439  -0.000  -0.000  39.182
 Approx polarizability: 128.037   0.000 128.037   0.000  -0.000  59.783

                      1                      2                      3
                     E2U                    E2U                    E2G
 Frequencies --    413.2272               413.2272               624.5228
 Red. masses --      2.8391                 2.8391                 6.0797
 Frc consts  --      0.2856                 0.2856                 1.3971
 IR Inten    --      0.0000                 0.0000                 0.0000

                      4                      5                      6
                     E2G                    A2U                    B2G
 Frequencies --    624.5228               690.4641               725.5807
 Red. masses --      6.0797                 1.0848                 3.4557
 Frc consts  --      1.3971                 0.3047                 1.0719
 IR Inten    --      0.0000               116.7894                 0.0000

                      7                      8                      9
                     E1G                    E1G                    E2U
 Frequencies --    868.3148               868.3148               997.1363
 Red. masses --      1.2476                 1.2476                 1.3825
 Frc consts  --      0.5542                 0.5542                 0.8099
 IR Inten    --      0.0000                 0.0000                 0.0000

                     10                     11                     12
                     E2U                    A1G                    B2G
 Frequencies --    997.1363              1015.1754              1026.9060
 Red. masses --      1.3825                 6.0432                 1.2720
 Frc consts  --      0.8099                 3.6694                 0.7903
 IR Inten    --      0.0000                 0.0000                 0.0000

                     13                     14                     15
                     B1U                    E1U                    E1U
 Frequencies --   1030.5692              1061.6186              1061.6186
 Red. masses --      6.5305                 1.7159                 1.7159
 Frc consts  --      4.0865                 1.1394                 1.1394
 IR Inten    --      0.0000                 5.4199                 5.4199

                     16                     17                     18
                     B2U                    E2G                    E2G
 Frequencies --   1176.3445              1199.9695              1199.9695
 Red. masses --      1.1057                 1.1408                 1.1408
 Frc consts  --      0.9015                 0.9679                 0.9679
 IR Inten    --      0.0000                 0.0000                 0.0000

                     19                     20                     21
                     B2U                    A2G                    E1U
 Frequencies --   1335.1969              1390.0650              1517.8506
 Red. masses --      5.8423                 1.2476                 1.9964
 Frc consts  --      6.1366                 1.4203                 2.7099
 IR Inten    --      0.0000                 0.0000                 7.1036

                     22                     23                     24
                     E1U                    E2G                    E2G
 Frequencies --   1517.8506              1635.4549              1635.4549
 Red. masses --      1.9964                 5.2491                 5.2491
 Frc consts  --      2.7099                 8.2720                 8.2720
 IR Inten    --      7.1036                 0.0000                 0.0000

                     25                     26                     27
                     B1U                    E2G                    E2G
 Frequencies --   3162.8431              3172.2748              3172.2748
 Red. masses --      1.0841                 1.0874                 1.0874
 Frc consts  --      6.3895                 6.4476                 6.4476
 IR Inten    --      0.0000                 0.0000                 0.0000

                     28                     29                     30
                     E1U                    E1U                    A1G
 Frequencies --   3187.6844              3187.6844              3197.5152
 Red. masses --      1.0945                 1.0945                 1.0988
 Frc consts  --      6.5524                 6.5524                 6.6190
 IR Inten    --     35.0505                35.0509                 0.0000

 - Thermochemistry -
 -------------------
 Temperature   298.150 Kelvin.  Pressure   1.00000 Atm.
 Atom     1 has atomic number  6 and mass  12.00000

 Molecular mass:    78.04695 amu.
 Principal axes and moments of inertia in atomic units:
                           1         2         3
     Eigenvalues --   314.65468 314.65468 629.30935
           X            0.95278   0.30367   0.00000
           Y           -0.30367   0.95278   0.00000
           Z            0.00000  -0.00000   1.00000
 This molecule is an oblate symmetric top.
 Rotational symmetry number 12.
 Rotational temperatures (Kelvin)      0.27527     0.27527     0.13763
 Rotational constants (GHZ):           5.73562     5.73562     2.86781
 Zero-point vibrational energy     263817.1 (Joules/Mol)
                                   63.05379 (Kcal/Mol)
 Warning -- explicit consideration of   2 degrees of freedom as
           vibrations may cause significant error
 Vibrational temperatures:    594.54   594.54   898.55   898.55   993.42
          (Kelvin)           1043.95  1249.31  1249.31  1434.66  1434.66
                             1460.61  1477.49  1482.76  1527.43  1527.43
                             1692.50  1726.49  1726.49  1921.05  1999.99
                             2183.85  2183.85  2353.05  2353.05  4550.63
                             4564.20  4564.20  4586.37  4586.37  4600.51

 Zero-point correction=                           0.100483 (Hartree/Particle)
 Thermal correction to Energy=                    0.104861
 Thermal correction to Enthalpy=                  0.105805
 Thermal correction to Gibbs Free Energy=         0.075381
 Sum of electronic and zero-point Energies=           -232.239364
 Sum of electronic and thermal Energies=              -232.234986
 Sum of electronic and thermal Enthalpies=            -232.234042
 Sum of electronic and thermal Free Energies=         -232.264466

                     E (Thermal)             CV                S
                      KCal/Mol        Cal/Mol-Kelvin    Cal/Mol-Kelvin
 Total                   65.801             17.073             64.033
 Electronic               0.000              0.000              0.000
 Translational            0.889              2.981             38.979
 Rotational               0.889              2.981             20.698
 Vibrational             64.024             11.111              4.356
 Vibration     1          0.777              1.442              0.915
 Vibration     2          0.777              1.442              0.915

 Optimization completed.
    -- Stationary point found.
 Normal termination of Gaussian 16 at Sat Sep 30 10:11:53 2023.
 Gaussian 16:  ES64L-G16RevB.01 20-Dec-2017

 ---------------------------------
 # rohf/gen geom=check guess=check
 ---------------------------------

 -------------------------
 benzene, ROHF/cc-pVTZ-F12
 -------------------------
 Structure from the checkpoint file:  "benzene.chk"
 Charge =  0 Multiplicity = 1

                         Standard orientation:
 ---------------------------------------------------------------------
 Center     Atomic      Atomic             Coordinates (Angstroms)
 Number     Number       Type             X           Y           Z
 ---------------------------------------------------------------------
      1          6           0        0.000000    1.390727   -0.000000
      2          6           0        1.204405    0.695363   -0.000000
      3          6           0        1.204405   -0.695363   -0.000000
      4          6           0       -0.000000   -1.390727   -0.000000
      5          6           0       -1.204405   -0.695363   -0.000000
      6          6           0       -1.204405    0.695363   -0.000000
      7          1           0        0.000000    2.472542   -0.000000
      8          1           0        2.141284    1.236271   -0.000000
      9          1           0        2.141284   -1.236271   -0.000000
     10          1           0       -0.000000   -2.472542   -0.000000
     11          1           0       -2.141284   -1.236271   -0.000000
     12          1           0       -2.141284    1.236271   -0.000000
 ---------------------------------------------------------------------

 SCF Done:  E(ROHF) =  -230.793894436     A.U. after    9 cycles

 The electronic state is 1-A1G.
 Alpha  occ. eigenvalues --  -11.23425 -11.23366 -11.23366 -11.23240 -11.23240
 Alpha  occ. eigenvalues --  -11.23178  -1.15196  -1.01549  -1.01549  -0.82442
 Alpha  occ. eigenvalues --   -0.82442  -0.71047  -0.64319  -0.62051  -0.58838
 Alpha  occ. eigenvalues --   -0.58838  -0.50384  -0.49495  -0.49495  -0.33746
 Alpha  occ. eigenvalues --   -0.33746
 Alpha virt. eigenvalues --    0.05165   0.05259   0.05259   0.06880   0.06880
 Alpha virt. eigenvalues --    0.08682   0.09153   0.10198   0.10198   0.10659
 Alpha virt. eigenvalues --    0.10659   0.12108   0.12720   0.12720   0.12799

 Mulliken charges and spin densities:
               1          2
     1  C   -0.141563  -0.000000
     2  C   -0.141563  -0.000000
     3  C   -0.141563  -0.000000
     4  C   -0.141563  -0.000000
     5  C   -0.141563  -0.000000
     6  C   -0.141563  -0.000000
     7  H    0.141563  -0.000000
     8  H    0.141563  -0.000000
     9  H    0.141563  -0.000000
    10  H    0.141563  -0.000000
    11  H    0.141563  -0.000000
    12  H    0.141563  -0.000000
 Sum of Mulliken charges =  -0.00000  -0.00000

 Dipole moment (field-independent basis, Debye):
    X=              0.0000    Y=             -0.0000    Z=             -0.0000  Tot=              0.0000
 Quadrupole moment (field-independent basis, Debye-Ang):
   XX=            -32.0548   YY=            -32.0548   ZZ=            -40.8540
   XY=             -0.0000   XZ=             -0.0000   YZ=             -0.0000

 Normal termination of Gaussian 16 at Sat Sep 30 10:12:30 2023.
