 Gaussian 16, Revision B.01,

 ---------------------------------------
 # b3lyp/gen opt freq CPHF(Grid=OneStep)
 ---------------------------------------

 ---------------------
 benzyl, B3LYP/pcseg-2
 ---------------------
 Symbolic Z-matrix:
 Charge =  0 Multiplicity = 2

 SCF Done:  E(UB3LYP) =  -271.020215918     A.U. after   17 cycles
 Optimization completed.
    -- Stationary point found.
 Normal termination of Gaussian 16 at Wed Sep 27 16:50:23 2023.

 ------------------------------------------------------------------
 #N Geom=AllCheck Guess=TCheck SCRF=Check GenChk UB3LYP/ChkBas Freq
 ------------------------------------------------------------------

 Structure from the checkpoint file:  "benzyl.chk"
 ---------------------
 benzyl, B3LYP/pcseg-2
 ---------------------
 Charge =  0 Multiplicity = 2

 SCF Done:  E(UB3LYP) =  -271.020215918     A.U. after    1 cycles

  Exact polarizability:  45.914   0.000  84.784   0.000   0.000 118.994
 Approx polarizability:  70.425   0.000 135.005   0.000   0.000 191.419

                      1                      2                      3
                     B1                     B2                     A2
 Frequencies --    197.6654               359.4832               392.2817
 Red. masses --      3.3407                 2.3897                 2.2621
 Frc consts  --      0.0769                 0.1819                 0.2051
 IR Inten    --      1.4613                 0.1338                 0.0000

                      4                      5                      6
                     B1                     A2                     A1
 Frequencies --    479.3461               506.9645               535.7010
 Red. masses --      2.6516                 1.1252                 5.8935
 Frc consts  --      0.3590                 0.1704                 0.9965
 IR Inten    --     16.8228                 0.0000                 0.2154

                      7                      8                      9
                     B2                     B1                     B1
 Frequencies --    629.8702               686.4987               720.9503
 Red. masses --      6.4233                 1.7047                 1.2956
 Frc consts  --      1.5014                 0.4733                 0.3967
 IR Inten    --      0.0041                52.8012                 2.1283

                     10                     11                     12
                     B1                     A1                     A2
 Frequencies --    780.8705               833.4987               835.9967
 Red. masses --      2.0197                 4.5533                 1.2645
 Frc consts  --      0.7256                 1.8637                 0.5207
 IR Inten    --     60.3420                 0.3683                 0.0000

                     13                     14                     15
                     B1                     B2                     A2
 Frequencies --    908.6232               972.8721               987.8881
 Red. masses --      1.4604                 1.4843                 1.3612
 Frc consts  --      0.7104                 0.8277                 0.7827
 IR Inten    --      4.7891                 1.9893                 0.0000

                     16                     17                     18
                     A1                     B1                     A1
 Frequencies --    999.3833               999.4437              1037.6202
 Red. masses --      5.8468                 1.2950                 2.2147
 Frc consts  --      3.4406                 0.7621                 1.4049
 IR Inten    --      1.0513                 0.0171                 2.3596

                     19                     20                     21
                     B2                     B2                     A1
 Frequencies --   1118.9824              1176.3853              1187.0574
 Red. masses --      1.4409                 1.1433                 1.2434
 Frc consts  --      1.0630                 0.9322                 1.0323
 IR Inten    --      2.7732                 0.0451                 0.1564

                     22                     23                     24
                     A1                     B2                     B2
 Frequencies --   1290.6591              1327.9342              1358.7255
 Red. masses --      2.6689                 4.7465                 1.4508
 Frc consts  --      2.6194                 4.9315                 1.5780
 IR Inten    --      1.2679                 0.8329                 0.3232

                     25                     26                     27
                     B2                     A1                     A1
 Frequencies --   1477.8181              1495.7084              1505.7460
 Red. masses --      2.3438                 1.3047                 1.9877
 Frc consts  --      3.0158                 1.7197                 2.6553
 IR Inten    --      4.8759                 0.2001                10.2118

                     28                     29                     30
                     B2                     A1                     A1
 Frequencies --   1576.8656              1597.6161              3152.8189
 Red. masses --      4.0915                 4.6553                 1.0537
 Frc consts  --      5.9941                 7.0008                 6.1710
 IR Inten    --      0.9324                 0.8603                 4.4936

                     31                     32                     33
                     A1                     B2                     A1
 Frequencies --   3164.9404              3167.3465              3179.3940
 Red. masses --      1.0846                 1.0866                 1.0902
 Frc consts  --      6.4010                 6.4226                 6.4933
 IR Inten    --      7.4221                 0.4509                 4.9789

                     34                     35                     36
                     B2                     A1                     B2
 Frequencies --   3183.9878              3197.0627              3247.9571
 Red. masses --      1.0941                 1.0967                 1.1178
 Frc consts  --      6.5348                 6.6046                 6.9476
 IR Inten    --     32.5891                11.4513                 7.6577

 - Thermochemistry -
 -------------------
 Temperature   298.150 Kelvin.  Pressure   1.00000 Atm.
 Atom     1 has atomic number  6 and mass  12.00000

 Molecular mass:    91.05478 amu.
 Principal axes and moments of inertia in atomic units:
                           1         2         3
     Eigenvalues --   323.75823 663.46999 987.22822
           X            0.00000   0.00000   1.00000
           Y            0.00000   1.00000  -0.00000
           Z            1.00000   0.00000   0.00000
 This molecule is an asymmetric top.
 Rotational symmetry number  2.
 Rotational temperatures (Kelvin)      0.26753     0.13055     0.08773
 Rotational constants (GHZ):           5.57435     2.72016     1.82809
 Zero-point vibrational energy     300693.1 (Joules/Mol)
                                   71.86738 (Kcal/Mol)
 Warning -- explicit consideration of   6 degrees of freedom as
           vibrations may cause significant error
 Vibrational temperatures:    284.40   517.22   564.41   689.67   729.41
          (Kelvin)            770.75   906.24   987.72  1037.29  1123.50
                             1199.22  1202.81  1307.31  1399.75  1421.35
                             1437.89  1437.98  1492.90  1609.97  1692.56
                             1707.91  1856.97  1910.60  1954.90  2126.25
                             2151.99  2166.43  2268.76  2298.61  4536.20
                             4553.64  4557.11  4574.44  4581.05  4599.86
                             4673.09

 Zero-point correction=                           0.114528 (Hartree/Particle)
 Thermal correction to Energy=                    0.120189
 Thermal correction to Enthalpy=                  0.121133
 Thermal correction to Gibbs Free Energy=         0.085517
 Sum of electronic and zero-point Energies=           -270.905688
 Sum of electronic and thermal Energies=              -270.900027
 Sum of electronic and thermal Enthalpies=            -270.899083
 Sum of electronic and thermal Free Energies=         -270.934698

                     E (Thermal)             CV                S
                      KCal/Mol        Cal/Mol-Kelvin    Cal/Mol-Kelvin
 Total                   75.420             22.865             74.959
 Electronic               0.000              0.000              1.377
 Translational            0.889              2.981             39.439
 Rotational               0.889              2.981             25.475
 Vibrational             73.642             16.904              8.668
 Vibration     1          0.637              1.843              2.155
 Vibration     2          0.734              1.556              1.124
 Vibration     3          0.760              1.487              0.991
 Vibration     4          0.836              1.296              0.712
 Vibration     5          0.862              1.235              0.641
 Vibration     6          0.891              1.171              0.575

 Optimization completed.
    -- Stationary point found.
 Normal termination of Gaussian 16 at Wed Sep 27 17:13:22 2023.
 Gaussian 16:  ES64L-G16RevB.01 20-Dec-2017

 ---------------------------------
 # rohf/gen geom=check guess=check
 ---------------------------------

 ------------------------
 benzyl, ROHF/cc-pVTZ-F12
 ------------------------
 Structure from the checkpoint file:  "benzyl.chk"
 Charge =  0 Multiplicity = 2

                         Standard orientation:
 ---------------------------------------------------------------------
 Center     Atomic      Atomic             Coordinates (Angstroms)
 Number     Number       Type             X           Y           Z
 ---------------------------------------------------------------------
      1          6           0        0.000000    0.000000    0.991663
      2          6           0        0.000000    1.213805    0.250608
      3          6           0        0.000000    1.207141   -1.128885
      4          6           0        0.000000    0.000000   -1.831799
      5          6           0       -0.000000   -1.207141   -1.128885
      6          6           0       -0.000000   -1.213805    0.250608
      7          6           0        0.000000    0.000000    2.392188
      8          1           0        0.000000    2.152560    0.789326
      9          1           0        0.000000    2.144099   -1.669971
     10          1           0        0.000000    0.000000   -2.912917
     11          1           0       -0.000000   -2.144099   -1.669971
     12          1           0       -0.000000   -2.152560    0.789326
     13          1           0        0.000000    0.924678    2.950608
     14          1           0       -0.000000   -0.924678    2.950608
 ---------------------------------------------------------------------

 SCF Done:  E(ROHF) =  -269.217144027     A.U. after   16 cycles

 The electronic state is 2-B1.
 Alpha  occ. eigenvalues --  -11.24501 -11.23408 -11.23383 -11.23266 -11.23241
 Alpha  occ. eigenvalues --  -11.23168 -11.22758  -1.15366  -1.04512  -1.01679
 Alpha  occ. eigenvalues --   -0.90805  -0.82517  -0.79025  -0.69448  -0.64332
 Alpha  occ. eigenvalues --   -0.64180  -0.58798  -0.57958  -0.55440  -0.50628
 Alpha  occ. eigenvalues --   -0.50493  -0.48370  -0.35558  -0.33926  -0.07102
 Alpha virt. eigenvalues --    0.04628   0.04972   0.05222   0.06728   0.06813
 Alpha virt. eigenvalues --    0.07344   0.08954   0.09877   0.09877   0.10160
 Alpha virt. eigenvalues --    0.10645   0.10677   0.12515   0.12624   0.12676

 Mulliken charges and spin densities:
               1          2
     1  C    0.200464   0.013127
     2  C   -0.163244   0.058811
     3  C   -0.146330   0.004463
     4  C   -0.175748   0.047808
     5  C   -0.146330   0.004463
     6  C   -0.163244   0.058811
     7  C   -0.384734   0.770556
     8  H    0.131301   0.000784
     9  H    0.141129   0.000020
    10  H    0.142211   0.001793
    11  H    0.141129   0.000020
    12  H    0.131301   0.000784
    13  H    0.146047   0.019280
    14  H    0.146047   0.019280
 Sum of Mulliken charges =  -0.00000   1.00000

 Dipole moment (field-independent basis, Debye):
    X=             -0.0000    Y=              0.0000    Z=              0.1414  Tot=              0.1414
 Quadrupole moment (field-independent basis, Debye-Ang):
   XX=            -47.5606   YY=            -37.5009   ZZ=            -37.7763
   XY=              0.0000   XZ=             -0.0000   YZ=              0.0000

 Normal termination of Gaussian 16 at Wed Sep 27 17:20:56 2023.
