 Gaussian 16, Revision B.01,
 Gaussian 16:  ES64L-G16RevB.01 20-Dec-2017

 --------------------
 # b3lyp/gen opt freq
 --------------------

 ------------------------
 o-benzyne, B3LYP/pcseg-2
 ------------------------
 Symbolic Z-matrix:
 Charge =  0 Multiplicity = 1

 SCF Done:  E(RB3LYP) =  -231.000817960     A.U. after   12 cycles
 Optimization completed.
    -- Stationary point found.
 Normal termination of Gaussian 16 at Thu Jun 16 18:33:13 2022.

 ------------------------------------------------------------------
 #N Geom=AllCheck Guess=TCheck SCRF=Check GenChk RB3LYP/ChkBas Freq
 ------------------------------------------------------------------

 Structure from the checkpoint file:  "/wrk/irikura/Gau-30205.chk"
 ------------------------
 o-benzyne, B3LYP/pcseg-2
 ------------------------
 Charge =  0 Multiplicity = 1

                         Standard orientation:
 ---------------------------------------------------------------------
 Center     Atomic      Atomic             Coordinates (Angstroms)
 Number     Number       Type             X           Y           Z
 ---------------------------------------------------------------------
      1          6           0       -0.000000    0.620516   -1.231021
      2          6           0       -0.000000   -0.620516   -1.231021
      3          6           0       -0.000000    1.455581   -0.133617
      4          6           0       -0.000000   -1.455581   -0.133617
      5          6           0       -0.000000    0.700553    1.053625
      6          6           0       -0.000000   -0.700553    1.053625
      7          1           0       -0.000000    2.535408   -0.135434
      8          1           0       -0.000000   -2.535408   -0.135434
      9          1           0       -0.000000    1.224514    2.001513
     10          1           0       -0.000000   -1.224514    2.001513
 ---------------------------------------------------------------------

 SCF Done:  E(RB3LYP) =  -231.000817960     A.U. after    1 cycles

 The electronic state is 1-A1.
 Alpha  occ. eigenvalues --  -10.21159 -10.21159 -10.19491 -10.19436 -10.18792
 Alpha  occ. eigenvalues --  -10.18602  -0.88198  -0.76772  -0.75272  -0.62951
 Alpha  occ. eigenvalues --   -0.59081  -0.52003  -0.47458  -0.46871  -0.40379
 Alpha  occ. eigenvalues --   -0.39808  -0.39586  -0.27535  -0.27475  -0.27448
 Alpha virt. eigenvalues --   -0.08413  -0.03795  -0.00476   0.01725   0.03736
 Alpha virt. eigenvalues --    0.05280   0.07463   0.12460   0.14494   0.14741
 Alpha virt. eigenvalues --    0.15310   0.15841   0.18251   0.19564   0.19840

 Mulliken charges:
               1
     1  C    0.015240
     2  C    0.015240
     3  C   -0.068245
     4  C   -0.068245
     5  C   -0.026314
     6  C   -0.026314
     7  H    0.047238
     8  H    0.047238
     9  H    0.032082
    10  H    0.032082
 Sum of Mulliken charges =  -0.00000

 Dipole moment (field-independent basis, Debye):
    X=              0.0000    Y=              0.0000    Z=              1.6925  Tot=              1.6925
 Quadrupole moment (field-independent basis, Debye-Ang):
   XX=            -38.0443   YY=            -29.7409   ZZ=            -35.3294
   XY=              0.0000   XZ=             -0.0000   YZ=             -0.0000

  Exact polarizability:  36.747  -0.000  82.670  -0.000   0.000  71.039
 Approx polarizability:  55.212   0.000 166.997   0.000  -0.000 121.888

                      1                      2                      3
                     B1                     B2                     A2
 Frequencies --    396.0254               432.6912               456.4249
 Red. masses --      2.6886                10.5690                 8.2761
 Frc consts  --      0.2484                 1.1658                 1.0158
 IR Inten    --      6.2805               113.1428                 0.0000

                      4                      5                      6
                     A2                     A1                     B1
 Frequencies --    607.3847               626.3145               755.0531
 Red. masses --      3.2233                 7.2466                 1.2288
 Frc consts  --      0.7006                 1.6748                 0.4127
 IR Inten    --      0.0000                 0.3668                84.5201

                      7                      8                      9
                     B2                     A2                     B1
 Frequencies --    851.5465               875.7606               933.3877
 Red. masses --      6.2465                 1.2658                 1.3778
 Frc consts  --      2.6687                 0.5720                 0.7073
 IR Inten    --     32.9153                 0.0000                 0.0003

                     10                     11                     12
                     A2                     A1                     A1
 Frequencies --    980.4689              1000.1525              1076.1064
 Red. masses --      1.3077                 2.4713                 4.3210
 Frc consts  --      0.7407                 1.4565                 2.9481
 IR Inten    --      0.0000                 7.5781                22.3053

                     13                     14                     15
                     B2                     A1                     B2
 Frequencies --   1109.5140              1163.1625              1276.1468
 Red. masses --      1.4951                 1.1969                 1.4816
 Frc consts  --      1.0844                 0.9541                 1.4216
 IR Inten    --      1.5321                 0.0003                 0.0760

                     16                     17                     18
                     A1                     B2                     B2
 Frequencies --   1308.0755              1427.2202              1467.4961
 Red. masses --      2.3816                 2.7964                 3.1046
 Frc consts  --      2.4010                 3.3561                 3.9393
 IR Inten    --      1.6116                 1.6933                14.8821

                     19                     20                     21
                     A1                     A1                     B2
 Frequencies --   1485.6160              2013.1658              3162.9559
 Red. masses --      2.5694                11.2497                 1.0854
 Frc consts  --      3.3412                26.8628                 6.3977
 IR Inten    --      0.9045                 0.1909                 1.0122

                     22                     23                     24
                     A1                     B2                     A1
 Frequencies --   3178.1429              3201.8185              3204.9812
 Red. masses --      1.0910                 1.0930                 1.0949
 Frc consts  --      6.4929                 6.6020                 6.6264
 IR Inten    --      3.7024                23.5555                 6.6288

 - Thermochemistry -
 -------------------
 Temperature   298.150 Kelvin.  Pressure   1.00000 Atm.
 Atom     1 has atomic number  6 and mass  12.00000

 Molecular mass:    76.03130 amu.
 Principal axes and moments of inertia in atomic units:
                           1         2         3
     Eigenvalues --   254.87702 313.71184 568.58886
           X            0.00000   0.00000   1.00000
           Y            1.00000   0.00000  -0.00000
           Z            0.00000   1.00000   0.00000
 This molecule is an asymmetric top.
 Rotational symmetry number  2.
 Rotational temperatures (Kelvin)      0.33983     0.27609     0.15233
 Rotational constants (GHZ):           7.08083     5.75286     3.17407
 Zero-point vibrational energy     197321.7 (Joules/Mol)
                                   47.16102 (Kcal/Mol)
 Warning -- explicit consideration of   4 degrees of freedom as
           vibrations may cause significant error
 Vibrational temperatures:    569.79   622.55   656.69   873.89   901.13
          (Kelvin)           1086.35  1225.19  1260.02  1342.94  1410.68
                             1439.00  1548.28  1596.34  1673.53  1836.09
                             1882.03  2053.45  2111.40  2137.47  2896.50
                             4550.79  4572.64  4606.70  4611.25

 Zero-point correction=                           0.075156 (Hartree/Particle)
 Thermal correction to Energy=                    0.079593
 Thermal correction to Enthalpy=                  0.080538
 Thermal correction to Gibbs Free Energy=         0.048486
 Sum of electronic and zero-point Energies=           -230.925662
 Sum of electronic and thermal Energies=              -230.921225
 Sum of electronic and thermal Enthalpies=            -230.920280
 Sum of electronic and thermal Free Energies=         -230.952332

                     E (Thermal)             CV                S
                      KCal/Mol        Cal/Mol-Kelvin    Cal/Mol-Kelvin
 Total                   49.946             16.620             67.458
 Electronic               0.000              0.000              0.000
 Translational            0.889              2.981             38.901
 Rotational               0.889              2.981             23.945
 Vibrational             48.168             10.659              4.611
 Vibration     1          0.763              1.479              0.977
 Vibration     2          0.794              1.399              0.850
 Vibration     3          0.815              1.347              0.777
 Vibration     4          0.966              1.016              0.437

 Optimization completed.
    -- Stationary point found.
 Normal termination of Gaussian 16 at Thu Jun 16 18:34:25 2022.
