 Gaussian 16, Revision B.01,
 Gaussian 16:  ES64L-G16RevB.01 20-Dec-2017

 --------------------
 # b3lyp/gen opt freq
 --------------------

 --------------------------------------------
 bicyclo[3.2.1]octan-2-one opt, B3LYP/pcseg-2
 --------------------------------------------
 Symbolic Z-matrix:
 Charge =  0 Multiplicity = 1

 SCF Done:  E(RB3LYP) =  -387.437500225     A.U. after   13 cycles
 SCF Done:  E(RB3LYP) =  -387.451770045     A.U. after   10 cycles
 SCF Done:  E(RB3LYP) =  -387.452911223     A.U. after   11 cycles
 SCF Done:  E(RB3LYP) =  -387.452264854     A.U. after   11 cycles
 SCF Done:  E(RB3LYP) =  -387.453182548     A.U. after   11 cycles
 SCF Done:  E(RB3LYP) =  -387.453253597     A.U. after    9 cycles
 SCF Done:  E(RB3LYP) =  -387.453299031     A.U. after    9 cycles
 SCF Done:  E(RB3LYP) =  -387.453307048     A.U. after    8 cycles
 SCF Done:  E(RB3LYP) =  -387.453310213     A.U. after    7 cycles
 Optimization completed.
    -- Stationary point found.
 Normal termination of Gaussian 16 at Mon Aug  8 09:16:53 2022.

 ------------------------------------------------------------------
 #N Geom=AllCheck Guess=TCheck SCRF=Check GenChk RB3LYP/ChkBas Freq
 ------------------------------------------------------------------

 Structure from the checkpoint file:  "bicyc82one.chk"
 --------------------------------------------
 bicyclo[3.2.1]octan-2-one opt, B3LYP/pcseg-2
 --------------------------------------------
 Charge =  0 Multiplicity = 1

                         Standard orientation:
 ---------------------------------------------------------------------
 Center     Atomic      Atomic             Coordinates (Angstroms)
 Number     Number       Type             X           Y           Z
 ---------------------------------------------------------------------
      1          6           0        1.387524   -0.127349   -0.050919
      2          6           0        0.888975    1.194220   -0.620054
      3          6           0       -0.378012    1.728693    0.080457
      4          6           0       -1.352844    0.606737    0.472220
      5          6           0       -1.756991   -0.265553   -0.738730
      6          6           0       -0.676863   -1.382537   -0.818813
      7          6           0        0.297280   -1.104390    0.356583
      8          8           0        2.565533   -0.379018    0.062177
      9          6           0       -0.618285   -0.393653    1.376546
     10          1           0        1.706343    1.912775   -0.595508
     11          1           0        0.670132    1.005798   -1.676336
     12          1           0       -0.086795    2.268879    0.984769
     13          1           0       -0.875824    2.452117   -0.568459
     14          1           0       -2.223533    1.045137    0.961652
     15          1           0       -2.742923   -0.701488   -0.577028
     16          1           0       -1.819597    0.319144   -1.657116
     17          1           0        0.773474   -2.005019    0.738702
     18          1           0       -0.070070    0.083721    2.190432
     19          1           0       -1.309539   -1.114419    1.818836
     20          1           0       -0.165132   -1.405497   -1.781123
     21          1           0       -1.125503   -2.366013   -0.679981
 ---------------------------------------------------------------------

 SCF Done:  E(RB3LYP) =  -387.453310213     A.U. after    1 cycles

 The electronic state is 1-A.
 Alpha  occ. eigenvalues --  -19.10920 -10.25547 -10.18347 -10.18208 -10.18037
 Alpha  occ. eigenvalues --  -10.18037 -10.17934 -10.17869 -10.17566  -1.04179
 Alpha  occ. eigenvalues --   -0.87134  -0.77809  -0.74482  -0.72338  -0.64308
 Alpha  occ. eigenvalues --   -0.60944  -0.56436  -0.52538  -0.50805  -0.48738
 Alpha  occ. eigenvalues --   -0.45531  -0.43693  -0.42871  -0.42775  -0.40560
 Alpha  occ. eigenvalues --   -0.40161  -0.36676  -0.35631  -0.35109  -0.34579
 Alpha  occ. eigenvalues --   -0.32964  -0.32912  -0.32387  -0.24440
 Alpha virt. eigenvalues --   -0.02283   0.00252   0.02365   0.02950   0.04003
 Alpha virt. eigenvalues --    0.05352   0.06049   0.06538   0.06900   0.08103
 Alpha virt. eigenvalues --    0.09958   0.10545   0.11212   0.11684   0.13440

 Mulliken charges:
               1
     1  C    0.234297
     2  C   -0.025125
     3  C   -0.071388
     4  C   -0.005557
     5  C   -0.088325
     6  C   -0.092408
     7  C    0.028162
     8  O   -0.394199
     9  C   -0.119783
    10  H    0.055632
    11  H    0.049785
    12  H    0.040997
    13  H    0.042598
    14  H    0.022069
    15  H    0.048601
    16  H    0.043896
    17  H    0.024368
    18  H    0.058203
    19  H    0.047387
    20  H    0.049176
    21  H    0.051614
 Sum of Mulliken charges =  -0.00000

 Dipole moment (field-independent basis, Debye):
    X=             -3.4601    Y=              0.6634    Z=             -0.2133  Tot=              3.5295
 Quadrupole moment (field-independent basis, Debye-Ang):
   XX=            -66.2606   YY=            -53.8588   ZZ=            -54.0699
   XY=              2.6280   XZ=             -0.8282   YZ=             -0.2545

  Exact polarizability:  97.104  -0.507  89.615   0.440  -1.105  80.982
 Approx polarizability: 140.543  -3.045 124.840   1.602  -1.657 121.300

                      1                      2                      3
                      A                      A                      A
 Frequencies --     94.4397               163.1982               236.6487
 Red. masses --      4.3303                 1.9451                 2.1773
 Frc consts  --      0.0228                 0.0305                 0.0718
 IR Inten    --      3.9934                 0.6816                 0.2967

                      4                      5                      6
                      A                      A                      A
 Frequencies --    340.9645               380.6433               412.8635
 Red. masses --      2.1806                 2.3305                 3.3227
 Frc consts  --      0.1494                 0.1989                 0.3337
 IR Inten    --      0.2559                 0.3297                 1.9405

                      7                      8                      9
                      A                      A                      A
 Frequencies --    462.9762               509.5358               629.9151
 Red. masses --      4.8538                 2.2548                 3.1691
 Frc consts  --      0.6130                 0.3449                 0.7409
 IR Inten    --     10.7350                 1.5852                 1.5037

                     10                     11                     12
                      A                      A                      A
 Frequencies --    685.4901               733.6692               782.6755
 Red. masses --      3.4438                 3.8662                 1.7473
 Frc consts  --      0.9534                 1.2261                 0.6306
 IR Inten    --      2.1593                 1.7674                 0.1487

                     13                     14                     15
                      A                      A                      A
 Frequencies --    803.0547               817.5645               878.7680
 Red. masses --      2.0383                 1.9118                 2.5786
 Frc consts  --      0.7745                 0.7529                 1.1732
 IR Inten    --      1.7737                 3.1282                 1.0944

                     16                     17                     18
                      A                      A                      A
 Frequencies --    882.2044               916.5418               934.1306
 Red. masses --      2.4495                 2.8535                 2.2417
 Frc consts  --      1.1232                 1.4123                 1.1525
 IR Inten    --      1.3632                 4.6087                 6.8168

                     19                     20                     21
                      A                      A                      A
 Frequencies --    968.6306               990.7693              1016.9793
 Red. masses --      1.9411                 1.6583                 2.4651
 Frc consts  --      1.0731                 0.9591                 1.5022
 IR Inten    --      1.8183                 0.8202                 0.8474

                     22                     23                     24
                      A                      A                      A
 Frequencies --   1021.5393              1057.6255              1085.0998
 Red. masses --      1.9717                 1.6990                 1.7612
 Frc consts  --      1.2123                 1.1197                 1.2218
 IR Inten    --      0.9201                 7.4745                 7.7695

                     25                     26                     27
                      A                      A                      A
 Frequencies --   1114.8669              1165.4598              1174.2069
 Red. masses --      1.4604                 1.2346                 1.1373
 Frc consts  --      1.0695                 0.9880                 0.9239
 IR Inten    --     11.3034                 1.9894                 1.0036

                     28                     29                     30
                      A                      A                      A
 Frequencies --   1199.4272              1227.3126              1260.8138
 Red. masses --      1.5092                 1.4793                 1.3595
 Frc consts  --      1.2792                 1.3129                 1.2733
 IR Inten    --      6.1116                 3.1604                 4.1002

                     31                     32                     33
                      A                      A                      A
 Frequencies --   1262.6245              1270.1864              1312.5772
 Red. masses --      1.3153                 1.5802                 1.3499
 Frc consts  --      1.2354                 1.5021                 1.3703
 IR Inten    --     10.1985                 1.5436                 2.5212

                     34                     35                     36
                      A                      A                      A
 Frequencies --   1319.8772              1338.0568              1344.1201
 Red. masses --      1.3547                 1.4807                 1.7637
 Frc consts  --      1.3905                 1.5620                 1.8774
 IR Inten    --      2.0860                 0.5369                 4.1165

                     37                     38                     39
                      A                      A                      A
 Frequencies --   1354.4847              1364.3875              1381.1956
 Red. masses --      1.5067                 1.5067                 1.4044
 Frc consts  --      1.6287                 1.6526                 1.5785
 IR Inten    --      2.2064                 0.0755                 2.2761

                     40                     41                     42
                      A                      A                      A
 Frequencies --   1467.6671              1492.3365              1496.5099
 Red. masses --      1.0794                 1.0822                 1.0853
 Frc consts  --      1.3699                 1.4199                 1.4320
 IR Inten    --      9.6957                 3.0519                 8.0474

                     43                     44                     45
                      A                      A                      A
 Frequencies --   1502.9607              1520.7992              1777.6132
 Red. masses --      1.0871                 1.0967                11.2307
 Frc consts  --      1.4469                 1.4944                20.9090
 IR Inten    --      9.6913                 1.6413               261.6651

                     46                     47                     48
                      A                      A                      A
 Frequencies --   3018.7751              3024.5556              3032.7911
 Red. masses --      1.0706                 1.0605                 1.0613
 Frc consts  --      5.7483                 5.7161                 5.7512
 IR Inten    --      4.5426                30.4213                25.4461

                     49                     50                     51
                      A                      A                      A
 Frequencies --   3043.4926              3053.3017              3059.5733
 Red. masses --      1.0614                 1.0645                 1.0966
 Frc consts  --      5.7927                 5.8470                 6.0481
 IR Inten    --     13.9155                58.4350                20.0229

                     52                     53                     54
                      A                      A                      A
 Frequencies --   3063.4824              3072.8250              3076.5815
 Red. masses --      1.0866                 1.1041                 1.1045
 Frc consts  --      6.0084                 6.1421                 6.1596
 IR Inten    --     56.8567                 5.1157                25.0341

                     55                     56                     57
                      A                      A                      A
 Frequencies --   3092.9994              3099.1810              3101.2010
 Red. masses --      1.1015                 1.0910                 1.0937
 Frc consts  --      6.2089                 6.1743                 6.1973
 IR Inten    --     31.3886                43.1680                 8.9633

 - Thermochemistry -
 -------------------
 Temperature   298.150 Kelvin.  Pressure   1.00000 Atm.
 Atom     1 has atomic number  6 and mass  12.00000

 Molecular mass:   124.08882 amu.
 Principal axes and moments of inertia in atomic units:
                           1         2         3
     Eigenvalues --   706.571901072.571761299.03806
           X            0.99948   0.03214  -0.00083
           Y           -0.03214   0.99947  -0.00514
           Z            0.00067   0.00517   0.99999
 This molecule is an asymmetric top.
 Rotational symmetry number  1.
 Warning -- assumption of classical behavior for rotation
           may cause significant error
 Rotational temperatures (Kelvin)      0.12258     0.08075     0.06668
 Rotational constants (GHZ):           2.55422     1.68263     1.38929
 Zero-point vibrational energy     489824.0 (Joules/Mol)
                                  117.07074 (Kcal/Mol)
 Warning -- explicit consideration of   8 degrees of freedom as
           vibrations may cause significant error
 Vibrational temperatures:    135.88   234.81   340.48   490.57   547.66
          (Kelvin)            594.02   666.12   733.11   906.31   986.27
                             1055.59  1126.10  1155.42  1176.29  1264.35
                             1269.30  1318.70  1344.01  1393.64  1425.50
                             1463.21  1469.77  1521.69  1561.22  1604.04
                             1676.84  1689.42  1725.71  1765.83  1814.03
                             1816.64  1827.51  1888.51  1899.01  1925.17
                             1933.89  1948.80  1963.05  1987.23  2111.65
                             2147.14  2153.14  2162.43  2188.09  2557.59
                             4343.34  4351.66  4363.51  4378.91  4393.02
                             4402.04  4407.67  4421.11  4426.51  4450.14
                             4459.03  4461.94

 Zero-point correction=                           0.186564 (Hartree/Particle)
 Thermal correction to Energy=                    0.193975
 Thermal correction to Enthalpy=                  0.194919
 Thermal correction to Gibbs Free Energy=         0.154803
 Sum of electronic and zero-point Energies=           -387.266746
 Sum of electronic and thermal Energies=              -387.259335
 Sum of electronic and thermal Enthalpies=            -387.258391
 Sum of electronic and thermal Free Energies=         -387.298507

                     E (Thermal)             CV                S
                      KCal/Mol        Cal/Mol-Kelvin    Cal/Mol-Kelvin
 Total                  121.721             30.262             84.432
 Electronic               0.000              0.000              0.000
 Translational            0.889              2.981             40.361
 Rotational               0.889              2.981             28.378
 Vibrational            119.944             24.301             15.692
 Vibration     1          0.603              1.953              3.566
 Vibration     2          0.623              1.888              2.512
 Vibration     3          0.656              1.785              1.828
 Vibration     4          0.720              1.594              1.208
 Vibration     5          0.750              1.511              1.037
 Vibration     6          0.777              1.442              0.917
 Vibration     7          0.821              1.332              0.757
 Vibration     8          0.865              1.229              0.635

                           ! Non-Optimized Parameters !
 Normal termination of Gaussian 16 at Mon Aug  8 09:39:08 2022.
