 Gaussian 16, Revision B.01,

 ---------------------------------------
 # b3lyp/gen opt freq CPHF(Grid=OneStep)
 ---------------------------------------

 --------------------------------------------
 bicyclo[3.2.1]octan-2-one opt, B3LYP/pcseg-2
 --------------------------------------------
 Symbolic Z-matrix:
 Charge =  0 Multiplicity = 1

 SCF Done:  E(RB3LYP) =  -387.453310213     A.U. after   13 cycles
 Optimization completed.
    -- Stationary point found.
 Normal termination of Gaussian 16 at Sat Sep 30 04:46:09 2023.

 ------------------------------------------------------------------
 #N Geom=AllCheck Guess=TCheck SCRF=Check GenChk RB3LYP/ChkBas Freq
 ------------------------------------------------------------------

 Structure from the checkpoint file:  "bicyc82one.chk"
 --------------------------------------------
 bicyclo[3.2.1]octan-2-one opt, B3LYP/pcseg-2
 --------------------------------------------
 Charge =  0 Multiplicity = 1

 SCF Done:  E(RB3LYP) =  -387.453310213     A.U. after    1 cycles

  Exact polarizability:  97.103  -0.508  89.614   0.440  -1.105  80.982
 Approx polarizability: 140.543  -3.045 124.840   1.602  -1.657 121.300

                      1                      2                      3
                      A                      A                      A
 Frequencies --     94.4376               163.1968               236.6467
 Red. masses --      4.3303                 1.9451                 2.1773
 Frc consts  --      0.0228                 0.0305                 0.0718
 IR Inten    --      3.9934                 0.6818                 0.2966

                      4                      5                      6
                      A                      A                      A
 Frequencies --    340.9599               380.6400               412.8605
 Red. masses --      2.1806                 2.3306                 3.3225
 Frc consts  --      0.1494                 0.1989                 0.3337
 IR Inten    --      0.2556                 0.3297                 1.9407

                      7                      8                      9
                      A                      A                      A
 Frequencies --    462.9758               509.5351               629.9009
 Red. masses --      4.8538                 2.2547                 3.1690
 Frc consts  --      0.6130                 0.3449                 0.7408
 IR Inten    --     10.7353                 1.5856                 1.5017

                     10                     11                     12
                      A                      A                      A
 Frequencies --    685.4915               733.6693               782.6741
 Red. masses --      3.4438                 3.8663                 1.7473
 Frc consts  --      0.9534                 1.2261                 0.6306
 IR Inten    --      2.1582                 1.7683                 0.1487

                     13                     14                     15
                      A                      A                      A
 Frequencies --    803.0501               817.5602               878.7687
 Red. masses --      2.0384                 1.9117                 2.5791
 Frc consts  --      0.7745                 0.7529                 1.1735
 IR Inten    --      1.7739                 3.1275                 1.0951

                     16                     17                     18
                      A                      A                      A
 Frequencies --    882.2054               916.5406               934.1308
 Red. masses --      2.4490                 2.8537                 2.2418
 Frc consts  --      1.1230                 1.4124                 1.1525
 IR Inten    --      1.3638                 4.6070                 6.8168

                     19                     20                     21
                      A                      A                      A
 Frequencies --    968.6296               990.7702              1016.9802
 Red. masses --      1.9411                 1.6583                 2.4651
 Frc consts  --      1.0730                 0.9591                 1.5022
 IR Inten    --      1.8191                 0.8196                 0.8473

                     22                     23                     24
                      A                      A                      A
 Frequencies --   1021.5391              1057.6246              1085.0981
 Red. masses --      1.9717                 1.6990                 1.7613
 Frc consts  --      1.2123                 1.1197                 1.2219
 IR Inten    --      0.9205                 7.4755                 7.7677

                     25                     26                     27
                      A                      A                      A
 Frequencies --   1114.8693              1165.4609              1174.2041
 Red. masses --      1.4604                 1.2346                 1.1374
 Frc consts  --      1.0695                 0.9880                 0.9239
 IR Inten    --     11.3078                 1.9897                 1.0038

                     28                     29                     30
                      A                      A                      A
 Frequencies --   1199.4246              1227.3124              1260.8127
 Red. masses --      1.5091                 1.4793                 1.3594
 Frc consts  --      1.2791                 1.3129                 1.2732
 IR Inten    --      6.1111                 3.1613                 4.0992

                     31                     32                     33
                      A                      A                      A
 Frequencies --   1262.6242              1270.1859              1312.5794
 Red. masses --      1.3153                 1.5802                 1.3499
 Frc consts  --      1.2355                 1.5021                 1.3703
 IR Inten    --     10.2007                 1.5439                 2.5198

                     34                     35                     36
                      A                      A                      A
 Frequencies --   1319.8779              1338.0565              1344.1173
 Red. masses --      1.3548                 1.4807                 1.7636
 Frc consts  --      1.3905                 1.5620                 1.8773
 IR Inten    --      2.0868                 0.5367                 4.1142

                     37                     38                     39
                      A                      A                      A
 Frequencies --   1354.4834              1364.3864              1381.1960
 Red. masses --      1.5067                 1.5067                 1.4044
 Frc consts  --      1.6287                 1.6526                 1.5785
 IR Inten    --      2.2065                 0.0753                 2.2766

                     40                     41                     42
                      A                      A                      A
 Frequencies --   1467.7023              1492.3423              1496.5126
 Red. masses --      1.0794                 1.0822                 1.0853
 Frc consts  --      1.3700                 1.4200                 1.4320
 IR Inten    --      9.6828                 3.0535                 8.0487

                     43                     44                     45
                      A                      A                      A
 Frequencies --   1502.9651              1520.8000              1777.6176
 Red. masses --      1.0871                 1.0967                11.2307
 Frc consts  --      1.4469                 1.4944                20.9090
 IR Inten    --      9.6836                 1.6399               261.6459

                     46                     47                     48
                      A                      A                      A
 Frequencies --   3018.8252              3024.5604              3032.7860
 Red. masses --      1.0706                 1.0605                 1.0613
 Frc consts  --      5.7485                 5.7161                 5.7512
 IR Inten    --      4.5555                30.4311                25.4532

                     49                     50                     51
                      A                      A                      A
 Frequencies --   3043.4974              3053.3061              3059.5810
 Red. masses --      1.0614                 1.0645                 1.0966
 Frc consts  --      5.7928                 5.8470                 6.0481
 IR Inten    --     13.9155                58.4436                20.0169

                     52                     53                     54
                      A                      A                      A
 Frequencies --   3063.4863              3072.8316              3076.5793
 Red. masses --      1.0866                 1.1041                 1.1045
 Frc consts  --      6.0084                 6.1421                 6.1596
 IR Inten    --     56.8798                 5.1041                25.0283

                     55                     56                     57
                      A                      A                      A
 Frequencies --   3093.0044              3099.1764              3101.1961
 Red. masses --      1.1015                 1.0911                 1.0937
 Frc consts  --      6.2088                 6.1743                 6.1974
 IR Inten    --     31.3050                43.2311                 8.9507

 - Thermochemistry -
 -------------------
 Temperature   298.150 Kelvin.  Pressure   1.00000 Atm.
 Atom     1 has atomic number  6 and mass  12.00000

 Molecular mass:   124.08882 amu.
 Principal axes and moments of inertia in atomic units:
                           1         2         3
     Eigenvalues --   706.571781072.571701299.03792
           X            0.99948   0.03214  -0.00083
           Y           -0.03214   0.99947  -0.00514
           Z            0.00067   0.00517   0.99999
 This molecule is an asymmetric top.
 Rotational symmetry number  1.
 Warning -- assumption of classical behavior for rotation
           may cause significant error
 Rotational temperatures (Kelvin)      0.12258     0.08075     0.06668
 Rotational constants (GHZ):           2.55422     1.68263     1.38929
 Zero-point vibrational energy     489824.4 (Joules/Mol)
                                  117.07084 (Kcal/Mol)
 Warning -- explicit consideration of   8 degrees of freedom as
           vibrations may cause significant error
 Vibrational temperatures:    135.87   234.80   340.48   490.57   547.66
          (Kelvin)            594.01   666.12   733.11   906.29   986.27
                             1055.59  1126.09  1155.41  1176.29  1264.35
                             1269.30  1318.70  1344.01  1393.64  1425.50
                             1463.21  1469.77  1521.69  1561.21  1604.05
                             1676.84  1689.42  1725.70  1765.83  1814.03
                             1816.63  1827.51  1888.51  1899.01  1925.16
                             1933.89  1948.80  1963.05  1987.23  2111.70
                             2147.15  2153.15  2162.43  2188.09  2557.60
                             4343.42  4351.67  4363.50  4378.91  4393.03
                             4402.05  4407.67  4421.12  4426.51  4450.14
                             4459.02  4461.93

 Zero-point correction=                           0.186564 (Hartree/Particle)
 Thermal correction to Energy=                    0.193975
 Thermal correction to Enthalpy=                  0.194919
 Thermal correction to Gibbs Free Energy=         0.154803
 Sum of electronic and zero-point Energies=           -387.266746
 Sum of electronic and thermal Energies=              -387.259335
 Sum of electronic and thermal Enthalpies=            -387.258391
 Sum of electronic and thermal Free Energies=         -387.298507

                     E (Thermal)             CV                S
                      KCal/Mol        Cal/Mol-Kelvin    Cal/Mol-Kelvin
 Total                  121.721             30.263             84.432
 Electronic               0.000              0.000              0.000
 Translational            0.889              2.981             40.361
 Rotational               0.889              2.981             28.378
 Vibrational            119.944             24.301             15.692
 Vibration     1          0.603              1.953              3.566
 Vibration     2          0.623              1.888              2.512
 Vibration     3          0.656              1.785              1.828
 Vibration     4          0.720              1.594              1.208
 Vibration     5          0.750              1.511              1.037
 Vibration     6          0.777              1.442              0.917
 Vibration     7          0.821              1.332              0.757
 Vibration     8          0.865              1.229              0.635

                           ! Non-Optimized Parameters !
 Normal termination of Gaussian 16 at Sat Sep 30 06:03:58 2023.
 Gaussian 16:  ES64L-G16RevB.01 20-Dec-2017

 ---------------------------------
 # rohf/gen geom=check guess=check
 ---------------------------------

 -----------------------------------------------
 bicyclo[3.2.1]octan-2-one opt, ROHF/cc-pVTZ-F12
 -----------------------------------------------
 Structure from the checkpoint file:  "bicyc82one.chk"
 Charge =  0 Multiplicity = 1

                         Standard orientation:
 ---------------------------------------------------------------------
 Center     Atomic      Atomic             Coordinates (Angstroms)
 Number     Number       Type             X           Y           Z
 ---------------------------------------------------------------------
      1          6           0        1.387524   -0.127349   -0.050919
      2          6           0        0.888975    1.194220   -0.620054
      3          6           0       -0.378012    1.728693    0.080457
      4          6           0       -1.352844    0.606737    0.472220
      5          6           0       -1.756991   -0.265553   -0.738730
      6          6           0       -0.676863   -1.382537   -0.818813
      7          6           0        0.297280   -1.104390    0.356583
      8          8           0        2.565533   -0.379018    0.062177
      9          6           0       -0.618285   -0.393653    1.376546
     10          1           0        1.706343    1.912775   -0.595508
     11          1           0        0.670132    1.005798   -1.676336
     12          1           0       -0.086795    2.268879    0.984769
     13          1           0       -0.875824    2.452117   -0.568459
     14          1           0       -2.223533    1.045137    0.961652
     15          1           0       -2.742923   -0.701488   -0.577028
     16          1           0       -1.819597    0.319144   -1.657116
     17          1           0        0.773474   -2.005019    0.738702
     18          1           0       -0.070070    0.083721    2.190432
     19          1           0       -1.309539   -1.114419    1.818836
     20          1           0       -0.165132   -1.405497   -1.781123
     21          1           0       -1.125503   -2.366013   -0.679981
 ---------------------------------------------------------------------

 SCF Done:  E(ROHF) =  -384.954767749     A.U. after   12 cycles

 The electronic state is 1-A.
 Alpha  occ. eigenvalues --  -20.53610 -11.31901 -11.23443 -11.23418 -11.23291
 Alpha  occ. eigenvalues --  -11.23232 -11.23228 -11.23014 -11.22721  -1.37971
 Alpha  occ. eigenvalues --   -1.16085  -1.04541  -1.00471  -0.97551  -0.87226
 Alpha  occ. eigenvalues --   -0.82868  -0.76741  -0.71409  -0.68559  -0.65819
 Alpha  occ. eigenvalues --   -0.63109  -0.60436  -0.59222  -0.58424  -0.55268
 Alpha  occ. eigenvalues --   -0.54934  -0.50533  -0.49830  -0.49050  -0.47960
 Alpha  occ. eigenvalues --   -0.45912  -0.45786  -0.45163  -0.39025
 Alpha virt. eigenvalues --    0.03723   0.04616   0.04632   0.05176   0.06327
 Alpha virt. eigenvalues --    0.06778   0.07005   0.07291   0.07755   0.10276
 Alpha virt. eigenvalues --    0.10521   0.10771   0.10931   0.11558   0.11803

 Mulliken charges and spin densities:
               1          2
     1  C    0.467723   0.000000
     2  C   -0.126899   0.000000
     3  C   -0.256422   0.000000
     4  C    0.288720   0.000000
     5  C   -0.282756   0.000000
     6  C   -0.256363   0.000000
     7  C    0.179749   0.000000
     8  O   -0.671027   0.000000
     9  C   -0.330709   0.000000
    10  H    0.120997   0.000000
    11  H    0.088628   0.000000
    12  H    0.078641   0.000000
    13  H    0.076220   0.000000
    14  H    0.031933   0.000000
    15  H    0.100586   0.000000
    16  H    0.072285   0.000000
    17  H    0.095846   0.000000
    18  H    0.067953   0.000000
    19  H    0.082936   0.000000
    20  H    0.070478   0.000000
    21  H    0.101482   0.000000
 Sum of Mulliken charges =  -0.00000   0.00000

 Dipole moment (field-independent basis, Debye):
    X=             -3.7914    Y=              0.7356    Z=             -0.2404  Tot=              3.8696
 Quadrupole moment (field-independent basis, Debye-Ang):
   XX=            -67.2256   YY=            -53.5629   ZZ=            -53.9025
   XY=              2.8420   XZ=             -0.8642   YZ=             -0.3164

 Normal termination of Gaussian 16 at Sat Sep 30 06:43:44 2023.
