 Gaussian 16, Revision B.01,
 Gaussian 16:  ES64L-G16RevB.01 20-Dec-2017

 --------------------
 # b3lyp/gen opt freq
 --------------------

 ----------------------------
 butyraldehyde, B3LYP/pcseg-2
 ----------------------------
 Symbolic Z-matrix:
 Charge =  0 Multiplicity = 1

 SCF Done:  E(RB3LYP) =  -232.556297335     A.U. after   12 cycles
 SCF Done:  E(RB3LYP) =  -232.557809650     A.U. after   10 cycles
 SCF Done:  E(RB3LYP) =  -232.557978391     A.U. after    8 cycles
 SCF Done:  E(RB3LYP) =  -232.557981420     A.U. after    7 cycles
 Optimization completed.
    -- Stationary point found.
 Normal termination of Gaussian 16 at Fri Jun 17 17:43:33 2022.

 ------------------------------------------------------------------
 #N Geom=AllCheck Guess=TCheck SCRF=Check GenChk RB3LYP/ChkBas Freq
 ------------------------------------------------------------------

 Structure from the checkpoint file:  "/wrk/irikura/Gau-7108.chk"
 ----------------------------
 butyraldehyde, B3LYP/pcseg-2
 ----------------------------
 Charge =  0 Multiplicity = 1

                         Standard orientation:
 ---------------------------------------------------------------------
 Center     Atomic      Atomic             Coordinates (Angstroms)
 Number     Number       Type             X           Y           Z
 ---------------------------------------------------------------------
      1          6           0        2.285948   -0.364475    0.000000
      2          1           0        2.814141   -1.318284    0.000000
      3          1           0        2.611077    0.192809    0.880941
      4          1           0        2.611077    0.192809   -0.880941
      5          6           0        0.773046   -0.573313    0.000000
      6          1           0        0.475564   -1.161519   -0.869795
      7          1           0        0.475564   -1.161519    0.869795
      8          6           0        0.000000    0.740368    0.000000
      9          1           0        0.262898    1.359688    0.867268
     10          1           0        0.262898    1.359688   -0.867268
     11          6           0       -1.499063    0.605883    0.000000
     12          1           0       -2.049855    1.570647    0.000000
     13          8           0       -2.102868   -0.435637    0.000000
 ---------------------------------------------------------------------

 SCF Done:  E(RB3LYP) =  -232.557981420     A.U. after    1 cycles

 The electronic state is 1-A'.
 Alpha  occ. eigenvalues --  -19.12724 -10.26607 -10.18863 -10.17557 -10.16734
 Alpha  occ. eigenvalues --   -1.05716  -0.80727  -0.72580  -0.62590  -0.56263
 Alpha  occ. eigenvalues --   -0.48993  -0.48493  -0.45469  -0.42220  -0.41486
 Alpha  occ. eigenvalues --   -0.37412  -0.37173  -0.35387  -0.34356  -0.26476
 Alpha virt. eigenvalues --   -0.03417   0.00865   0.02619   0.04374   0.05054
 Alpha virt. eigenvalues --    0.06203   0.08956   0.09041   0.10043   0.11920
 Alpha virt. eigenvalues --    0.13192   0.15021   0.18387   0.18391   0.20838

 Mulliken charges:
               1
     1  C   -0.068294
     2  H    0.038222
     3  H    0.016869
     4  H    0.016869
     5  C   -0.010707
     6  H    0.025905
     7  H    0.025905
     8  C    0.030104
     9  H    0.027714
    10  H    0.027714
    11  C    0.240621
    12  H   -0.000854
    13  O   -0.370069
 Sum of Mulliken charges =  -0.00000

 Dipole moment (field-independent basis, Debye):
    X=              1.9526    Y=              1.9062    Z=             -0.0000  Tot=              2.7288
 Quadrupole moment (field-independent basis, Debye-Ang):
   XX=            -37.8188   YY=            -31.4842   ZZ=            -31.1063
   XY=             -3.8358   XZ=             -0.0000   YZ=             -0.0000

  Exact polarizability:  61.021  -0.624  54.805   0.000  -0.000  42.597
 Approx polarizability:  73.248   6.495  80.497   0.000  -0.000  62.669

                      1                      2                      3
                     A"                     A"                     A'
 Frequencies --     79.4348               172.7341               192.8489
 Red. masses --      2.2473                 1.7660                 4.0630
 Frc consts  --      0.0084                 0.0310                 0.0890
 IR Inten    --      2.3402                 2.0905                 8.4874

                      4                      5                      6
                     A"                     A'                     A"
 Frequencies --    245.9203               345.0158               667.4576
 Red. masses --      1.0850                 3.1567                 1.1473
 Frc consts  --      0.0387                 0.2214                 0.3012
 IR Inten    --      0.0081                 0.5806                 3.3090

                      7                      8                      9
                     A'                     A"                     A'
 Frequencies --    693.9867               791.9692               852.5330
 Red. masses --      5.1748                 1.1563                 2.4676
 Frc consts  --      1.4684                 0.4273                 1.0567
 IR Inten    --     15.2817                 1.2077                 8.5894

                     10                     11                     12
                     A"                     A'                     A'
 Frequencies --    951.8281               962.5663              1044.9677
 Red. masses --      1.1838                 1.6865                 2.5371
 Frc consts  --      0.6319                 0.9206                 1.6323
 IR Inten    --      0.0045                 8.4301                 0.6120

                     13                     14                     15
                     A'                     A"                     A"
 Frequencies --   1133.4784              1156.6455              1256.0802
 Red. masses --      2.2565                 1.8098                 1.3311
 Frc consts  --      1.7081                 1.4265                 1.2374
 IR Inten    --     10.5434                 0.0066                 0.0494

                     16                     17                     18
                     A'                     A"                     A'
 Frequencies --   1317.1094              1325.3142              1395.3737
 Red. masses --      1.5198                 1.0857                 1.6127
 Frc consts  --      1.5534                 1.1236                 1.8501
 IR Inten    --      6.6540                 0.1623                18.7478

                     19                     20                     21
                     A'                     A'                     A'
 Frequencies --   1416.3863              1421.1540              1448.0361
 Red. masses --      1.2177                 1.1708                 1.1281
 Frc consts  --      1.4393                 1.3932                 1.3937
 IR Inten    --      4.3352                 5.4739                16.1224

                     22                     23                     24
                     A'                     A"                     A'
 Frequencies --   1491.9089              1501.2535              1508.7781
 Red. masses --      1.0492                 1.0396                 1.0826
 Frc consts  --      1.3760                 1.3805                 1.4520
 IR Inten    --      2.2900                 7.4959                 8.5222

                     25                     26                     27
                     A'                     A'                     A'
 Frequencies --   1801.9024              2860.8786              2994.0565
 Red. masses --      9.7939                 1.0819                 1.0609
 Frc consts  --     18.7357                 5.2171                 5.6034
 IR Inten    --    179.6562               144.4599                23.7966

                     28                     29                     30
                     A"                     A'                     A'
 Frequencies --   3011.9241              3024.4649              3044.2656
 Red. masses --      1.0973                 1.0364                 1.0602
 Frc consts  --      5.8649                 5.5854                 5.7890
 IR Inten    --      8.2585                25.8465                17.0051

                     31                     32                     33
                     A"                     A"                     A'
 Frequencies --   3065.0506              3090.1561              3093.7909
 Red. masses --      1.1020                 1.1035                 1.1000
 Frc consts  --      6.0997                 6.2084                 6.2034
 IR Inten    --      0.0825                54.4236                34.4219

 - Thermochemistry -
 -------------------
 Temperature   298.150 Kelvin.  Pressure   1.00000 Atm.
 Atom     1 has atomic number  6 and mass  12.00000

 Molecular mass:    72.05751 amu.
 Principal axes and moments of inertia in atomic units:
                           1         2         3
     Eigenvalues --   117.61742 714.01370 798.73973
           X            0.99409   0.10860   0.00000
           Y           -0.10860   0.99409   0.00000
           Z           -0.00000   0.00000   1.00000
 This molecule is an asymmetric top.
 Rotational symmetry number  1.
 Rotational temperatures (Kelvin)      0.73640     0.12131     0.10844
 Rotational constants (GHZ):          15.34417     2.52760     2.25949
 Zero-point vibrational energy     295234.0 (Joules/Mol)
                                   70.56262 (Kcal/Mol)
 Warning -- explicit consideration of   5 degrees of freedom as
           vibrations may cause significant error
 Vibrational temperatures:    114.29   248.53   277.47   353.82   496.40
          (Kelvin)            960.32   998.49  1139.47  1226.60  1369.47
                             1384.92  1503.48  1630.82  1664.15  1807.22
                             1895.03  1906.83  2007.63  2037.86  2044.72
                             2083.40  2146.52  2159.97  2170.80  2592.54
                             4116.17  4307.78  4333.49  4351.53  4380.02
                             4409.92  4446.05  4451.28

 Zero-point correction=                           0.112449 (Hartree/Particle)
 Thermal correction to Energy=                    0.118716
 Thermal correction to Enthalpy=                  0.119660
 Thermal correction to Gibbs Free Energy=         0.082816
 Sum of electronic and zero-point Energies=           -232.445533
 Sum of electronic and thermal Energies=              -232.439266
 Sum of electronic and thermal Enthalpies=            -232.438322
 Sum of electronic and thermal Free Energies=         -232.475165

                     E (Thermal)             CV                S
                      KCal/Mol        Cal/Mol-Kelvin    Cal/Mol-Kelvin
 Total                   74.495             20.736             77.544
 Electronic               0.000              0.000              0.000
 Translational            0.889              2.981             38.741
 Rotational               0.889              2.981             25.709
 Vibrational             72.718             14.774             13.094
 Vibration     1          0.600              1.963              3.905
 Vibration     2          0.626              1.876              2.406
 Vibration     3          0.635              1.850              2.200
 Vibration     4          0.660              1.770              1.760
 Vibration     5          0.723              1.585              1.189

 Optimization completed.
    -- Stationary point found.
 Normal termination of Gaussian 16 at Fri Jun 17 17:46:01 2022.
