 Gaussian 16, Revision B.01,
 Gaussian 16:  ES64L-G16RevB.01 20-Dec-2017

 --------------------
 # b3lyp/gen opt freq
 --------------------

 ----------------------------
 1,3-butadiene, B3LYP/pcseg-2
 ----------------------------
 Symbolic Z-matrix:
 Charge =  0 Multiplicity = 1

 SCF Done:  E(RB3LYP) =  -156.060600992     A.U. after   11 cycles
 Optimization completed.
    -- Stationary point found.
 Normal termination of Gaussian 16 at Wed Jun 15 10:18:50 2022.

 ------------------------------------------------------------------
 #N Geom=AllCheck Guess=TCheck SCRF=Check GenChk RB3LYP/ChkBas Freq
 ------------------------------------------------------------------

 Structure from the checkpoint file:  "/wrk/irikura/Gau-856.chk"
 ----------------------------
 1,3-butadiene, B3LYP/pcseg-2
 ----------------------------
 Charge =  0 Multiplicity = 1

                         Standard orientation:
 ---------------------------------------------------------------------
 Center     Atomic      Atomic             Coordinates (Angstroms)
 Number     Number       Type             X           Y           Z
 ---------------------------------------------------------------------
      1          6           0       -0.324968    0.649591    0.000000
      2          6           0        0.324968   -0.649591    0.000000
      3          6           0        0.324968    1.815018    0.000000
      4          6           0       -0.324968   -1.815018    0.000000
      5          1           0       -1.411014    0.644924    0.000000
      6          1           0        1.411014   -0.644924    0.000000
      7          1           0       -0.200952    2.759462    0.000000
      8          1           0        1.407333    1.858423    0.000000
      9          1           0        0.200952   -2.759462    0.000000
     10          1           0       -1.407333   -1.858423    0.000000
 ---------------------------------------------------------------------

 SCF Done:  E(RB3LYP) =  -156.060600992     A.U. after    1 cycles

 The electronic state is 1-AG.
 Alpha  occ. eigenvalues --  -10.18216 -10.18178 -10.17281 -10.17281  -0.81302
 Alpha  occ. eigenvalues --   -0.74064  -0.61144  -0.55881  -0.47479  -0.47026
 Alpha  occ. eigenvalues --   -0.40260  -0.39283  -0.35243  -0.33472  -0.24371
 Alpha virt. eigenvalues --   -0.04135   0.02821   0.03409   0.03915   0.04421
 Alpha virt. eigenvalues --    0.08046   0.08168   0.10955   0.13830   0.16103
 Alpha virt. eigenvalues --    0.18228   0.19300   0.21379   0.22306   0.24617

 Mulliken charges:
               1
     1  C    0.004745
     2  C    0.004745
     3  C   -0.120332
     4  C   -0.120332
     5  H    0.023468
     6  H    0.023468
     7  H    0.049028
     8  H    0.043090
     9  H    0.049028
    10  H    0.043090
 Sum of Mulliken charges =  -0.00000

 Dipole moment (field-independent basis, Debye):
    X=             -0.0000    Y=              0.0000    Z=              0.0000  Tot=              0.0000
 Quadrupole moment (field-independent basis, Debye-Ang):
   XX=            -23.2122   YY=            -23.6338   ZZ=            -29.1468
   XY=              0.0016   XZ=              0.0000   YZ=              0.0000

  Exact polarizability:  45.685  11.352  84.230  -0.000   0.000  31.348
 Approx polarizability:  66.826  25.240 130.429  -0.000  -0.000  44.482

                      1                      2                      3
                     AU                     BU                     AG
 Frequencies --    174.8047               299.9643               520.4414
 Red. masses --      2.6220                 2.1575                 2.6780
 Frc consts  --      0.0472                 0.1144                 0.4274
 IR Inten    --      0.6505                 2.7429                 0.0000

                      4                      5                      6
                     AU                     BG                     AG
 Frequencies --    542.1442               783.1002               901.6906
 Red. masses --      1.0743                 1.6213                 1.8268
 Frc consts  --      0.1860                 0.5858                 0.8751
 IR Inten    --     13.2988                 0.0000                 0.0000

                      7                      8                      9
                     BG                     AU                     BG
 Frequencies --    946.5988               947.9809              1006.2694
 Red. masses --      1.2805                 1.3566                 1.2553
 Frc consts  --      0.6760                 0.7183                 0.7489
 IR Inten    --      0.0000                92.2702                 0.0000

                     10                     11                     12
                     BU                     AU                     AG
 Frequencies --   1008.2749              1059.0099              1229.5765
 Red. masses --      1.1991                 1.1001                 1.9444
 Frc consts  --      0.7183                 0.7269                 1.7320
 IR Inten    --      1.9579                34.2115                 0.0000

                     13                     14                     15
                     AG                     BU                     BU
 Frequencies --   1318.5050              1325.2449              1420.0004
 Red. masses --      1.3611                 1.2818                 1.2490
 Frc consts  --      1.3941                 1.3263                 1.4838
 IR Inten    --      0.0000                 2.2257                 3.7874

                     16                     17                     18
                     AG                     BU                     AG
 Frequencies --   1479.8175              1651.0769              1701.4041
 Red. masses --      1.2161                 3.5608                 4.4298
 Frc consts  --      1.5690                 5.7192                 7.5553
 IR Inten    --      0.0000                23.2707                 0.0000

                     19                     20                     21
                     AG                     BU                     BU
 Frequencies --   3126.2850              3137.1351              3139.5323
 Red. masses --      1.0802                 1.0657                 1.0841
 Frc consts  --      6.2205                 6.1797                 6.2957
 IR Inten    --      0.0000                24.6633                 5.5176

                     22                     23                     24
                     AG                     AG                     BU
 Frequencies --   3139.8518              3224.0710              3224.4752
 Red. masses --      1.0672                 1.1154                 1.1150
 Frc consts  --      6.1988                 6.8310                 6.8303
 IR Inten    --      0.0000                 0.0000                22.8133

 - Thermochemistry -
 -------------------
 Temperature   298.150 Kelvin.  Pressure   1.00000 Atm.
 Atom     1 has atomic number  6 and mass  12.00000

 Molecular mass:    54.04695 amu.
 Principal axes and moments of inertia in atomic units:
                           1         2         3
     Eigenvalues --    42.35330 405.79453 448.14783
           X            0.11282   0.99361   0.00000
           Y            0.99361  -0.11282   0.00000
           Z            0.00000  -0.00000   1.00000
 This molecule is an asymmetric top.
 Rotational symmetry number  2.
 Rotational temperatures (Kelvin)      2.04503     0.21344     0.19327
 Rotational constants (GHZ):          42.61158     4.44743     4.02711
 Zero-point vibrational energy     223146.9 (Joules/Mol)
                                   53.33340 (Kcal/Mol)
 Warning -- explicit consideration of   4 degrees of freedom as
           vibrations may cause significant error
 Vibrational temperatures:    251.50   431.58   748.80   780.02  1126.71
          (Kelvin)           1297.33  1361.94  1363.93  1447.80  1450.68
                             1523.68  1769.09  1897.03  1906.73  2043.06
                             2129.13  2375.53  2447.94  4498.03  4513.64
                             4517.09  4517.55  4638.72  4639.30

 Zero-point correction=                           0.084992 (Hartree/Particle)
 Thermal correction to Energy=                    0.089631
 Thermal correction to Enthalpy=                  0.090575
 Thermal correction to Gibbs Free Energy=         0.059212
 Sum of electronic and zero-point Energies=           -155.975609
 Sum of electronic and thermal Energies=              -155.970970
 Sum of electronic and thermal Enthalpies=            -155.970026
 Sum of electronic and thermal Free Energies=         -156.001389

                     E (Thermal)             CV                S
                      KCal/Mol        Cal/Mol-Kelvin    Cal/Mol-Kelvin
 Total                   56.244             15.702             66.009
 Electronic               0.000              0.000              0.000
 Translational            0.889              2.981             37.884
 Rotational               0.889              2.981             22.181
 Vibrational             54.467              9.740              5.944
 Vibration     1          0.627              1.873              2.383
 Vibration     2          0.692              1.674              1.417
 Vibration     3          0.875              1.205              0.609
 Vibration     4          0.897              1.157              0.561

 Optimization completed.
    -- Stationary point found.
 Normal termination of Gaussian 16 at Wed Jun 15 10:20:27 2022.
