 Gaussian 16, Revision B.01,

 ---------------------------------------
 # b3lyp/gen opt freq CPHF(Grid=OneStep)
 ---------------------------------------

 --------------------------------------
 butadien-2-yl acetylene, B3LYP/pcseg-2
 --------------------------------------
 Symbolic Z-matrix:
 Charge =  0 Multiplicity = 1

 SCF Done:  E(RB3LYP) =  -232.233475001     A.U. after   14 cycles
 SCF Done:  E(RB3LYP) =  -232.233474834     A.U. after    7 cycles
 SCF Done:  E(RB3LYP) =  -232.233474998     A.U. after    6 cycles
 Optimization completed.
    -- Stationary point found.
 Normal termination of Gaussian 16 at Thu Sep 28 22:19:09 2023.

 ------------------------------------------------------------------
 #N Geom=AllCheck Guess=TCheck SCRF=Check GenChk RB3LYP/ChkBas Freq
 ------------------------------------------------------------------

 Structure from the checkpoint file:  "butadienyl2CCH.chk"
 --------------------------------------
 butadien-2-yl acetylene, B3LYP/pcseg-2
 --------------------------------------
 Charge =  0 Multiplicity = 1

 SCF Done:  E(RB3LYP) =  -232.233474998     A.U. after    1 cycles

  Exact polarizability:  80.266  -0.963  99.448   0.000   0.000  40.486
 Approx polarizability: 112.851  -7.104 176.451  -0.000  -0.000  58.769

                      1                      2                      3
                     A"                     A'                     A"
 Frequencies --    149.9140               161.8515               263.6271
 Red. masses --      2.1391                 3.6447                 3.1291
 Frc consts  --      0.0283                 0.0563                 0.1281
 IR Inten    --      0.1828                 1.2334                10.2970

                      4                      5                      6
                     A'                     A'                     A"
 Frequencies --    309.8095               471.6244               502.0015
 Red. masses --      2.6946                 3.1698                 1.6716
 Frc consts  --      0.1524                 0.4154                 0.2482
 IR Inten    --      0.0570                 3.2391                 3.1244

                      7                      8                      9
                     A'                     A"                     A'
 Frequencies --    622.3852               661.3605               688.1894
 Red. masses --      3.4743                 1.2823                 1.2969
 Frc consts  --      0.7929                 0.3305                 0.3619
 IR Inten    --      7.3870                46.0601                41.0651

                     10                     11                     12
                     A"                     A'                     A"
 Frequencies --    718.9657               755.2320               777.2419
 Red. masses --      1.5527                 4.4555                 1.5623
 Frc consts  --      0.4729                 1.4973                 0.5561
 IR Inten    --      0.3135                 0.3883                 1.3281

                     13                     14                     15
                     A"                     A'                     A"
 Frequencies --    938.1478               948.2286               963.4373
 Red. masses --      1.3982                 1.6522                 1.3468
 Frc consts  --      0.7250                 0.8753                 0.7365
 IR Inten    --     45.3803                 2.3654                39.2166

                     16                     17                     18
                     A"                     A'                     A'
 Frequencies --   1023.0423              1065.0972              1317.9346
 Red. masses --      1.1310                 1.3755                 3.5584
 Frc consts  --      0.6975                 0.9194                 3.6416
 IR Inten    --     16.1663                 4.5439                 9.2200

                     19                     20                     21
                     A'                     A'                     A'
 Frequencies --   1329.7897              1420.8158              1460.9589
 Red. masses --      1.2638                 1.3044                 1.2161
 Frc consts  --      1.3167                 1.5515                 1.5293
 IR Inten    --      0.1540                 5.4583                 0.9851

                     22                     23                     24
                     A'                     A'                     A'
 Frequencies --   1633.5636              1686.7426              2206.0807
 Red. masses --      3.7736                 4.5302                 6.0941
 Frc consts  --      5.9331                 7.5939                17.4745
 IR Inten    --     24.0587                 2.5512                 0.7708

                     25                     26                     27
                     A'                     A'                     A'
 Frequencies --   3146.8560              3154.4851              3156.7878
 Red. masses --      1.0668                 1.0688                 1.0713
 Frc consts  --      6.2243                 6.2665                 6.2902
 IR Inten    --      4.3463                 2.0146                 6.4120

                     28                     29                     30
                     A'                     A'                     A'
 Frequencies --   3236.9942              3248.6310              3471.3181
 Red. masses --      1.1164                 1.1169                 1.1578
 Frc consts  --      6.8921                 6.9446                 8.2200
 IR Inten    --      6.0255                 3.5705                70.8840

 - Thermochemistry -
 -------------------
 Temperature   298.150 Kelvin.  Pressure   1.00000 Atm.
 Atom     1 has atomic number  6 and mass  12.00000

 Molecular mass:    78.04695 amu.
 Principal axes and moments of inertia in atomic units:
                           1         2         3
     Eigenvalues --   377.02987 510.61778 887.64765
           X            1.00000  -0.00264   0.00000
           Y            0.00264   1.00000   0.00000
           Z            0.00000   0.00000   1.00000
 This molecule is an asymmetric top.
 Rotational symmetry number  1.
 Rotational temperatures (Kelvin)      0.22973     0.16963     0.09758
 Rotational constants (GHZ):           4.78673     3.53443     2.03317
 Zero-point vibrational energy     248172.0 (Joules/Mol)
                                   59.31453 (Kcal/Mol)
 Warning -- explicit consideration of   6 degrees of freedom as
           vibrations may cause significant error
 Vibrational temperatures:    215.69   232.87   379.30   445.75   678.56
          (Kelvin)            722.27   895.47   951.55   990.15  1034.43
                             1086.61  1118.28  1349.79  1364.29  1386.17
                             1471.93  1532.44  1896.21  1913.27  2044.24
                             2101.99  2350.33  2426.85  3174.06  4527.62
                             4538.60  4541.91  4657.31  4674.06  4994.45

 Zero-point correction=                           0.094524 (Hartree/Particle)
 Thermal correction to Energy=                    0.100879
 Thermal correction to Enthalpy=                  0.101823
 Thermal correction to Gibbs Free Energy=         0.064932
 Sum of electronic and zero-point Energies=           -232.138951
 Sum of electronic and thermal Energies=              -232.132596
 Sum of electronic and thermal Enthalpies=            -232.131652
 Sum of electronic and thermal Free Energies=         -232.168543

                     E (Thermal)             CV                S
                      KCal/Mol        Cal/Mol-Kelvin    Cal/Mol-Kelvin
 Total                   63.303             23.177             77.645
 Electronic               0.000              0.000              0.000
 Translational            0.889              2.981             38.979
 Rotational               0.889              2.981             26.638
 Vibrational             61.525             17.216             12.028
 Vibration     1          0.618              1.903              2.673
 Vibration     2          0.622              1.889              2.528
 Vibration     3          0.670              1.740              1.638
 Vibration     4          0.699              1.655              1.363
 Vibration     5          0.829              1.313              0.733
 Vibration     6          0.857              1.246              0.653

 Optimization completed.
    -- Stationary point found.
 Normal termination of Gaussian 16 at Thu Sep 28 22:28:20 2023.
 Gaussian 16:  ES64L-G16RevB.01 20-Dec-2017

 ---------------------------------
 # rohf/gen geom=check guess=check
 ---------------------------------

 -----------------------------------------
 butadien-2-yl acetylene, ROHF/cc-pVTZ-F12
 -----------------------------------------
 Structure from the checkpoint file:  "butadienyl2CCH.chk"
 Charge =  0 Multiplicity = 1

                         Standard orientation:
 ---------------------------------------------------------------------
 Center     Atomic      Atomic             Coordinates (Angstroms)
 Number     Number       Type             X           Y           Z
 ---------------------------------------------------------------------
      1          6           0        0.180084    1.931222    0.000000
      2          6           0        0.000000    0.599459    0.000000
      3          6           0        1.125826   -0.283097    0.000000
      4          6           0        2.057469   -1.041322    0.000000
      5          6           0       -1.348954    0.017740    0.000000
      6          6           0       -1.634173   -1.282703    0.000000
      7          1           0        1.166634    2.369261    0.000000
      8          1           0       -0.668175    2.601806    0.000000
      9          1           0        2.889166   -1.700681    0.000000
     10          1           0       -0.856285   -2.034116    0.000000
     11          1           0       -2.658312   -1.627608    0.000000
     12          1           0       -2.154540    0.743538    0.000000
 ---------------------------------------------------------------------

 SCF Done:  E(ROHF) =  -230.689375863     A.U. after   12 cycles

 The electronic state is 1-A'.
 Alpha  occ. eigenvalues --  -11.27064 -11.24499 -11.24396 -11.23918 -11.23016
 Alpha  occ. eigenvalues --  -11.23012  -1.12845  -1.03079  -1.00421  -0.84987
 Alpha  occ. eigenvalues --   -0.80150  -0.71162  -0.66076  -0.65565  -0.58841
 Alpha  occ. eigenvalues --   -0.55861  -0.51405  -0.49432  -0.40124  -0.39011
 Alpha  occ. eigenvalues --   -0.32436
 Alpha virt. eigenvalues --    0.04464   0.04855   0.05149   0.05888   0.06714
 Alpha virt. eigenvalues --    0.07345   0.08830   0.09346   0.09756   0.10331
 Alpha virt. eigenvalues --    0.10383   0.11198   0.12057   0.12470   0.13220

 Mulliken charges and spin densities:
               1          2
     1  C   -0.406705   0.000000
     2  C    0.114396   0.000000
     3  C    0.218655   0.000000
     4  C   -0.428489   0.000000
     5  C   -0.190306   0.000000
     6  C   -0.338778   0.000000
     7  H    0.168505   0.000000
     8  H    0.147740   0.000000
     9  H    0.239987   0.000000
    10  H    0.164611   0.000000
    11  H    0.153097   0.000000
    12  H    0.157284   0.000000
 Sum of Mulliken charges =  -0.00000   0.00000

 Dipole moment (field-independent basis, Debye):
    X=             -0.2456    Y=              0.2733    Z=              0.0000  Tot=              0.3675
 Quadrupole moment (field-independent basis, Debye-Ang):
   XX=            -31.5433   YY=            -31.1514   ZZ=            -41.0992
   XY=             -2.5230   XZ=              0.0000   YZ=              0.0000

 Normal termination of Gaussian 16 at Thu Sep 28 22:34:07 2023.
