 Gaussian 16, Revision B.01,

 ---------------------------------------
 # b3lyp/gen opt freq CPHF(Grid=OneStep)
 ---------------------------------------

 ----------------------------
 1,3-butadiene, B3LYP/pcseg-2
 ----------------------------
 Symbolic Z-matrix:
 Charge =  0 Multiplicity = 1

 SCF Done:  E(RB3LYP) =  -156.060600992     A.U. after   11 cycles
 Optimization completed.
    -- Stationary point found.
 Normal termination of Gaussian 16 at Thu Sep 28 17:52:09 2023.

 ------------------------------------------------------------------
 #N Geom=AllCheck Guess=TCheck SCRF=Check GenChk RB3LYP/ChkBas Freq
 ------------------------------------------------------------------

 Structure from the checkpoint file:  "butadiene.chk"
 ----------------------------
 1,3-butadiene, B3LYP/pcseg-2
 ----------------------------
 Charge =  0 Multiplicity = 1

 SCF Done:  E(RB3LYP) =  -156.060600992     A.U. after    1 cycles

  Exact polarizability:  45.686  11.353  84.231   0.000   0.000  31.349
 Approx polarizability:  66.826  25.240 130.429  -0.000  -0.000  44.482

                      1                      2                      3
                     AU                     BU                     AG
 Frequencies --    174.8038               299.9630               520.4408
 Red. masses --      2.6220                 2.1575                 2.6780
 Frc consts  --      0.0472                 0.1144                 0.4274
 IR Inten    --      0.6506                 2.7427                 0.0000

                      4                      5                      6
                     AU                     BG                     AG
 Frequencies --    542.1467               783.1018               901.6917
 Red. masses --      1.0743                 1.6213                 1.8268
 Frc consts  --      0.1860                 0.5858                 0.8751
 IR Inten    --     13.2983                 0.0000                 0.0000

                      7                      8                      9
                     BG                     AU                     BG
 Frequencies --    946.5979               947.9801              1006.2684
 Red. masses --      1.2805                 1.3566                 1.2553
 Frc consts  --      0.6760                 0.7183                 0.7489
 IR Inten    --      0.0000                92.2737                 0.0000

                     10                     11                     12
                     BU                     AU                     AG
 Frequencies --   1008.2776              1059.0099              1229.5775
 Red. masses --      1.1991                 1.1001                 1.9445
 Frc consts  --      0.7183                 0.7269                 1.7321
 IR Inten    --      1.9567                34.2162                 0.0000

                     13                     14                     15
                     AG                     BU                     BU
 Frequencies --   1318.5153              1325.2496              1420.0073
 Red. masses --      1.3611                 1.2818                 1.2490
 Frc consts  --      1.3941                 1.3263                 1.4839
 IR Inten    --      0.0000                 2.2260                 3.7868

                     16                     17                     18
                     AG                     BU                     AG
 Frequencies --   1479.8202              1651.0719              1701.4046
 Red. masses --      1.2161                 3.5607                 4.4297
 Frc consts  --      1.5690                 5.7190                 7.5551
 IR Inten    --      0.0000                23.2650                 0.0000

                     19                     20                     21
                     AG                     BU                     BU
 Frequencies --   3126.2998              3137.1372              3139.5502
 Red. masses --      1.0802                 1.0657                 1.0841
 Frc consts  --      6.2206                 6.1795                 6.2959
 IR Inten    --      0.0000                24.6504                 5.5380

                     22                     23                     24
                     AG                     AG                     BU
 Frequencies --   3139.8547              3224.0779              3224.4792
 Red. masses --      1.0672                 1.1154                 1.1150
 Frc consts  --      6.1987                 6.8311                 6.8304
 IR Inten    --      0.0000                 0.0000                22.8064

 - Thermochemistry -
 -------------------
 Temperature   298.150 Kelvin.  Pressure   1.00000 Atm.
 Atom     1 has atomic number  6 and mass  12.00000

 Molecular mass:    54.04695 amu.
 Principal axes and moments of inertia in atomic units:
                           1         2         3
     Eigenvalues --    42.35330 405.79453 448.14783
           X            0.11282   0.99361   0.00000
           Y            0.99361  -0.11282   0.00000
           Z            0.00000  -0.00000   1.00000
 This molecule is an asymmetric top.
 Rotational symmetry number  2.
 Rotational temperatures (Kelvin)      2.04503     0.21344     0.19327
 Rotational constants (GHZ):          42.61158     4.44743     4.02711
 Zero-point vibrational energy     223147.4 (Joules/Mol)
                                   53.33350 (Kcal/Mol)
 Warning -- explicit consideration of   4 degrees of freedom as
           vibrations may cause significant error
 Vibrational temperatures:    251.50   431.58   748.80   780.03  1126.71
          (Kelvin)           1297.33  1361.94  1363.93  1447.80  1450.69
                             1523.68  1769.09  1897.05  1906.74  2043.07
                             2129.13  2375.52  2447.94  4498.05  4513.64
                             4517.11  4517.55  4638.73  4639.31

 Zero-point correction=                           0.084992 (Hartree/Particle)
 Thermal correction to Energy=                    0.089631
 Thermal correction to Enthalpy=                  0.090575
 Thermal correction to Gibbs Free Energy=         0.059212
 Sum of electronic and zero-point Energies=           -155.975609
 Sum of electronic and thermal Energies=              -155.970970
 Sum of electronic and thermal Enthalpies=            -155.970026
 Sum of electronic and thermal Free Energies=         -156.001389

                     E (Thermal)             CV                S
                      KCal/Mol        Cal/Mol-Kelvin    Cal/Mol-Kelvin
 Total                   56.244             15.702             66.009
 Electronic               0.000              0.000              0.000
 Translational            0.889              2.981             37.884
 Rotational               0.889              2.981             22.181
 Vibrational             54.467              9.740              5.944
 Vibration     1          0.627              1.873              2.383
 Vibration     2          0.692              1.674              1.417
 Vibration     3          0.875              1.205              0.609
 Vibration     4          0.897              1.157              0.561

 Optimization completed.
    -- Stationary point found.
 Normal termination of Gaussian 16 at Thu Sep 28 17:54:47 2023.
 Gaussian 16:  ES64L-G16RevB.01 20-Dec-2017

 ---------------------------------
 # rohf/gen geom=check guess=check
 ---------------------------------

 -------------------------------
 1,3-butadiene, ROHF/cc-pVTZ-F12
 -------------------------------
 Structure from the checkpoint file:  "butadiene.chk"
 Charge =  0 Multiplicity = 1

                         Standard orientation:
 ---------------------------------------------------------------------
 Center     Atomic      Atomic             Coordinates (Angstroms)
 Number     Number       Type             X           Y           Z
 ---------------------------------------------------------------------
      1          6           0       -0.324968    0.649591    0.000000
      2          6           0        0.324968   -0.649591    0.000000
      3          6           0        0.324968    1.815018    0.000000
      4          6           0       -0.324968   -1.815018    0.000000
      5          1           0       -1.411014    0.644924    0.000000
      6          1           0        1.411014   -0.644924    0.000000
      7          1           0       -0.200952    2.759462    0.000000
      8          1           0        1.407333    1.858423    0.000000
      9          1           0        0.200952   -2.759462    0.000000
     10          1           0       -1.407333   -1.858423    0.000000
 ---------------------------------------------------------------------

 SCF Done:  E(ROHF) =  -154.987518547     A.U. after   10 cycles

 The electronic state is 1-AG.
 Alpha  occ. eigenvalues --  -11.23858 -11.23773 -11.22844 -11.22843  -1.09415
 Alpha  occ. eigenvalues --   -1.00234  -0.82878  -0.75562  -0.64686  -0.63697
 Alpha  occ. eigenvalues --   -0.56048  -0.54530  -0.49468  -0.44631  -0.32520
 Alpha virt. eigenvalues --    0.04816   0.05082   0.05510   0.07221   0.07456
 Alpha virt. eigenvalues --    0.08072   0.09162   0.10762   0.10809   0.11037
 Alpha virt. eigenvalues --    0.12249   0.12363   0.15330   0.16868   0.18139

 Mulliken charges and spin densities:
               1          2
     1  C   -0.092411   0.000000
     2  C   -0.092411   0.000000
     3  C   -0.363434   0.000000
     4  C   -0.363434   0.000000
     5  H    0.165347   0.000000
     6  H    0.165347   0.000000
     7  H    0.156845   0.000000
     8  H    0.133653   0.000000
     9  H    0.156845   0.000000
    10  H    0.133653   0.000000
 Sum of Mulliken charges =  -0.00000   0.00000

 Dipole moment (field-independent basis, Debye):
    X=              0.0000    Y=             -0.0000    Z=              0.0000  Tot=              0.0000
 Quadrupole moment (field-independent basis, Debye-Ang):
   XX=            -23.0074   YY=            -23.3591   ZZ=            -29.6583
   XY=              0.2124   XZ=              0.0000   YZ=              0.0000

 Normal termination of Gaussian 16 at Thu Sep 28 17:55:42 2023.
