 Gaussian 16, Revision B.01,

 ---------------------------------------
 # b3lyp/gen opt freq CPHF(Grid=OneStep)
 ---------------------------------------

 ----------------------------
 butyraldehyde, B3LYP/pcseg-2
 ----------------------------
 Symbolic Z-matrix:
 Charge =  0 Multiplicity = 1

 SCF Done:  E(RB3LYP) =  -232.557981419     A.U. after   12 cycles
 Optimization completed.
    -- Stationary point found.
 Normal termination of Gaussian 16 at Sun Oct  1 00:47:19 2023.

 ------------------------------------------------------------------
 #N Geom=AllCheck Guess=TCheck SCRF=Check GenChk RB3LYP/ChkBas Freq
 ------------------------------------------------------------------

 Structure from the checkpoint file:  "butanal.chk"
 ----------------------------
 butyraldehyde, B3LYP/pcseg-2
 ----------------------------
 Charge =  0 Multiplicity = 1

 SCF Done:  E(RB3LYP) =  -232.557981419     A.U. after    1 cycles

  Exact polarizability:  61.020  -0.624  54.804   0.000  -0.000  42.597
 Approx polarizability:  73.248   6.495  80.497  -0.000  -0.000  62.669

                      1                      2                      3
                     A"                     A"                     A'
 Frequencies --     79.4374               172.7358               192.8490
 Red. masses --      2.2473                 1.7660                 4.0630
 Frc consts  --      0.0084                 0.0310                 0.0890
 IR Inten    --      2.3402                 2.0904                 8.4891

                      4                      5                      6
                     A"                     A'                     A"
 Frequencies --    245.9226               345.0155               667.4567
 Red. masses --      1.0850                 3.1567                 1.1473
 Frc consts  --      0.0387                 0.2214                 0.3012
 IR Inten    --      0.0081                 0.5804                 3.3088

                      7                      8                      9
                     A'                     A"                     A'
 Frequencies --    693.9887               791.9696               852.5340
 Red. masses --      5.1747                 1.1563                 2.4676
 Frc consts  --      1.4684                 0.4273                 1.0567
 IR Inten    --     15.2796                 1.2079                 8.5891

                     10                     11                     12
                     A"                     A'                     A'
 Frequencies --    951.8290               962.5646              1044.9663
 Red. masses --      1.1838                 1.6864                 2.5371
 Frc consts  --      0.6319                 0.9206                 1.6323
 IR Inten    --      0.0045                 8.4276                 0.6122

                     13                     14                     15
                     A'                     A"                     A"
 Frequencies --   1133.4752              1156.6472              1256.0825
 Red. masses --      2.2565                 1.8098                 1.3311
 Frc consts  --      1.7081                 1.4265                 1.2374
 IR Inten    --     10.5454                 0.0065                 0.0493

                     16                     17                     18
                     A'                     A"                     A'
 Frequencies --   1317.1051              1325.3175              1395.3743
 Red. masses --      1.5199                 1.0857                 1.6127
 Frc consts  --      1.5534                 1.1236                 1.8501
 IR Inten    --      6.6548                 0.1624                18.7497

                     19                     20                     21
                     A'                     A'                     A'
 Frequencies --   1416.3870              1421.1555              1448.0372
 Red. masses --      1.2177                 1.1708                 1.1281
 Frc consts  --      1.4393                 1.3932                 1.3937
 IR Inten    --      4.3354                 5.4731                16.1211

                     22                     23                     24
                     A'                     A"                     A'
 Frequencies --   1491.9097              1501.2561              1508.7787
 Red. masses --      1.0492                 1.0396                 1.0826
 Frc consts  --      1.3760                 1.3805                 1.4520
 IR Inten    --      2.2903                 7.4953                 8.5221

                     25                     26                     27
                     A'                     A'                     A'
 Frequencies --   1801.9087              2860.8719              2994.0549
 Red. masses --      9.7939                 1.0819                 1.0609
 Frc consts  --     18.7357                 5.2171                 5.6034
 IR Inten    --    179.6547               144.4644                23.7936

                     28                     29                     30
                     A"                     A'                     A'
 Frequencies --   3011.9196              3024.4669              3044.2664
 Red. masses --      1.0973                 1.0364                 1.0602
 Frc consts  --      5.8649                 5.5854                 5.7890
 IR Inten    --      8.2593                25.8430                17.0036

                     31                     32                     33
                     A"                     A"                     A'
 Frequencies --   3065.0548              3090.1597              3093.7904
 Red. masses --      1.1020                 1.1035                 1.1000
 Frc consts  --      6.0997                 6.2084                 6.2034
 IR Inten    --      0.0833                54.4195                34.4240

 - Thermochemistry -
 -------------------
 Temperature   298.150 Kelvin.  Pressure   1.00000 Atm.
 Atom     1 has atomic number  6 and mass  12.00000

 Molecular mass:    72.05751 amu.
 Principal axes and moments of inertia in atomic units:
                           1         2         3
     Eigenvalues --   117.61745 714.01356 798.73961
           X            0.99409   0.10860   0.00000
           Y           -0.10860   0.99409   0.00000
           Z           -0.00000  -0.00000   1.00000
 This molecule is an asymmetric top.
 Rotational symmetry number  1.
 Rotational temperatures (Kelvin)      0.73640     0.12131     0.10844
 Rotational constants (GHZ):          15.34416     2.52760     2.25949
 Zero-point vibrational energy     295234.1 (Joules/Mol)
                                   70.56265 (Kcal/Mol)
 Warning -- explicit consideration of   5 degrees of freedom as
           vibrations may cause significant error
 Vibrational temperatures:    114.29   248.53   277.47   353.83   496.40
          (Kelvin)            960.32   998.50  1139.47  1226.61  1369.47
                             1384.92  1503.47  1630.82  1664.16  1807.22
                             1895.02  1906.84  2007.63  2037.86  2044.73
                             2083.40  2146.53  2159.97  2170.80  2592.54
                             4116.16  4307.78  4333.48  4351.53  4380.02
                             4409.93  4446.05  4451.27

 Zero-point correction=                           0.112449 (Hartree/Particle)
 Thermal correction to Energy=                    0.118716
 Thermal correction to Enthalpy=                  0.119660
 Thermal correction to Gibbs Free Energy=         0.082816
 Sum of electronic and zero-point Energies=           -232.445533
 Sum of electronic and thermal Energies=              -232.439266
 Sum of electronic and thermal Enthalpies=            -232.438322
 Sum of electronic and thermal Free Energies=         -232.475165

                     E (Thermal)             CV                S
                      KCal/Mol        Cal/Mol-Kelvin    Cal/Mol-Kelvin
 Total                   74.495             20.736             77.544
 Electronic               0.000              0.000              0.000
 Translational            0.889              2.981             38.741
 Rotational               0.889              2.981             25.709
 Vibrational             72.718             14.774             13.093
 Vibration     1          0.600              1.963              3.905
 Vibration     2          0.626              1.876              2.406
 Vibration     3          0.635              1.850              2.200
 Vibration     4          0.660              1.770              1.760
 Vibration     5          0.723              1.585              1.189

 Optimization completed.
    -- Stationary point found.
 Normal termination of Gaussian 16 at Sun Oct  1 00:57:57 2023.
 Gaussian 16:  ES64L-G16RevB.01 20-Dec-2017

 ---------------------------------
 # rohf/gen geom=check guess=check
 ---------------------------------

 -------------------------------
 butyraldehyde, ROHF/cc-pVTZ-F12
 -------------------------------
 Structure from the checkpoint file:  "butanal.chk"
 Charge =  0 Multiplicity = 1

                         Standard orientation:
 ---------------------------------------------------------------------
 Center     Atomic      Atomic             Coordinates (Angstroms)
 Number     Number       Type             X           Y           Z
 ---------------------------------------------------------------------
      1          6           0        2.285948   -0.364475    0.000000
      2          1           0        2.814141   -1.318285    0.000000
      3          1           0        2.611077    0.192808    0.880941
      4          1           0        2.611077    0.192808   -0.880941
      5          6           0        0.773046   -0.573313    0.000000
      6          1           0        0.475564   -1.161519   -0.869795
      7          1           0        0.475564   -1.161519    0.869795
      8          6           0        0.000000    0.740368    0.000000
      9          1           0        0.262898    1.359688    0.867268
     10          1           0        0.262898    1.359688   -0.867268
     11          6           0       -1.499063    0.605883    0.000000
     12          1           0       -2.049855    1.570647    0.000000
     13          8           0       -2.102868   -0.435637    0.000000
 ---------------------------------------------------------------------

 SCF Done:  E(ROHF) =  -231.086567074     A.U. after   11 cycles

 The electronic state is 1-A'.
 Alpha  occ. eigenvalues --  -20.55479 -11.33045 -11.24189 -11.22659 -11.21891
 Alpha  occ. eigenvalues --   -1.39528  -1.08089  -0.97736  -0.84883  -0.76974
 Alpha  occ. eigenvalues --   -0.67502  -0.64885  -0.63554  -0.57043  -0.56969
 Alpha  occ. eigenvalues --   -0.51535  -0.50655  -0.49176  -0.48027  -0.41912
 Alpha virt. eigenvalues --    0.04336   0.04698   0.05860   0.06357   0.07391
 Alpha virt. eigenvalues --    0.08480   0.08555   0.09338   0.10161   0.11190
 Alpha virt. eigenvalues --    0.11791   0.12113   0.14696   0.16486   0.17240

 Mulliken charges and spin densities:
               1          2
     1  C   -0.285849   0.000000
     2  H    0.091479   0.000000
     3  H    0.081756   0.000000
     4  H    0.081756   0.000000
     5  C   -0.103256   0.000000
     6  H    0.090238   0.000000
     7  H    0.090238   0.000000
     8  C   -0.109702   0.000000
     9  H    0.083650   0.000000
    10  H    0.083650   0.000000
    11  C    0.369447   0.000000
    12  H    0.092094   0.000000
    13  O   -0.565502   0.000000
 Sum of Mulliken charges =  -0.00000   0.00000

 Dipole moment (field-independent basis, Debye):
    X=              2.0802    Y=              2.2321    Z=             -0.0000  Tot=              3.0511
 Quadrupole moment (field-independent basis, Debye-Ang):
   XX=            -38.1160   YY=            -30.9532   ZZ=            -31.0184
   XY=             -4.4692   XZ=              0.0000   YZ=              0.0000

 Normal termination of Gaussian 16 at Sun Oct  1 01:01:02 2023.
