 Gaussian 16, Revision B.01,

 ---------------------------------------
 # b3lyp/gen opt freq CPHF(Grid=OneStep)
 ---------------------------------------

 -----------------------
 n-butane, B3LYP/pcseg-2
 -----------------------
 Symbolic Z-matrix:
 Charge =  0 Multiplicity = 1

 SCF Done:  E(RB3LYP) =  -158.524817368     A.U. after   11 cycles
 Optimization completed.
    -- Stationary point found.
 Normal termination of Gaussian 16 at Wed Sep 27 17:36:02 2023.

 ------------------------------------------------------------------
 #N Geom=AllCheck Guess=TCheck SCRF=Check GenChk RB3LYP/ChkBas Freq
 ------------------------------------------------------------------

 Structure from the checkpoint file:  "butane.chk"
 -----------------------
 n-butane, B3LYP/pcseg-2
 -----------------------
 Charge =  0 Multiplicity = 1

 SCF Done:  E(RB3LYP) =  -158.524817368     A.U. after    1 cycles

  Exact polarizability:  49.972   2.079  59.708   0.000  -0.000  47.086
 Approx polarizability:  68.900   0.198  68.815  -0.000  -0.000  68.203

                      1                      2                      3
                     AU                     AU                     BG
 Frequencies --    119.5064               220.2991               257.1060
 Red. masses --      1.9190                 1.0590                 1.1217
 Frc consts  --      0.0161                 0.0303                 0.0437
 IR Inten    --      0.0162                 0.0000                 0.0000

                      4                      5                      6
                     BU                     AG                     AU
 Frequencies --    259.0065               424.5765               737.3138
 Red. masses --      2.2466                 2.7313                 1.0715
 Frc consts  --      0.0888                 0.2901                 0.3432
 IR Inten    --      0.0081                 0.0000                 3.3109

                      7                      8                      9
                     BG                     AG                     AU
 Frequencies --    813.1470               839.8297               964.3349
 Red. masses --      1.1256                 1.9867                 1.1211
 Frc consts  --      0.4385                 0.8256                 0.6143
 IR Inten    --      0.0000                 0.0000                 0.7742

                     10                     11                     12
                     BU                     BU                     AG
 Frequencies --    980.6499              1015.0339              1062.1402
 Red. masses --      1.3933                 2.5967                 2.4807
 Frc consts  --      0.7894                 1.5763                 1.6489
 IR Inten    --      5.1243                 0.1084                 0.0000

                     13                     14                     15
                     AG                     BG                     AU
 Frequencies --   1169.4463              1211.2012              1291.1066
 Red. masses --      2.0464                 1.7541                 1.2457
 Frc consts  --      1.6490                 1.5161                 1.2235
 IR Inten    --      0.0000                 0.0000                 0.2384

                     16                     17                     18
                     BU                     BG                     AG
 Frequencies --   1328.2429              1333.4310              1393.2348
 Red. masses --      1.3458                 1.0696                 1.5454
 Frc consts  --      1.3989                 1.1205                 1.7675
 IR Inten    --      2.8957                 0.0000                 0.0000

                     19                     20                     21
                     AG                     BU                     AG
 Frequencies --   1412.8874              1414.3786              1487.0206
 Red. masses --      1.2197                 1.2384                 1.0623
 Frc consts  --      1.4346                 1.4596                 1.3840
 IR Inten    --      0.0000                 4.8254                 0.0000

                     22                     23                     24
                     BU                     BG                     AU
 Frequencies --   1491.1824              1498.2321              1499.6262
 Red. masses --      1.0477                 1.0437                 1.0362
 Frc consts  --      1.3726                 1.3804                 1.3729
 IR Inten    --      2.2896                 0.0000                14.9252

                     25                     26                     27
                     AG                     BU                     AG
 Frequencies --   1504.3863              1512.9033              3003.6087
 Red. masses --      1.0637                 1.0892                 1.0577
 Frc consts  --      1.4184                 1.4688                 5.6222
 IR Inten    --      0.0000                 9.4945                 0.0000

                     28                     29                     30
                     BU                     BG                     BU
 Frequencies --   3011.8870              3021.0014              3023.1712
 Red. masses --      1.0590                 1.1004                 1.0361
 Frc consts  --      5.6599                 5.9170                 5.5791
 IR Inten    --     45.6226                 0.0000                84.4027

                     31                     32                     33
                     AG                     AU                     BG
 Frequencies --   3023.7351              3044.1357              3080.5110
 Red. masses --      1.0357                 1.1043                 1.1025
 Frc consts  --      5.5790                 6.0292                 6.1641
 IR Inten    --      0.0000                20.2089                 0.0000

                     34                     35                     36
                     AU                     AG                     BU
 Frequencies --   3084.5452              3087.2836              3088.1361
 Red. masses --      1.1023                 1.1011                 1.1007
 Frc consts  --      6.1792                 6.1832                 6.1847
 IR Inten    --    113.7215                 0.0000                79.4302

 - Thermochemistry -
 -------------------
 Temperature   298.150 Kelvin.  Pressure   1.00000 Atm.
 Atom     1 has atomic number  6 and mass  12.00000

 Molecular mass:    58.07825 amu.
 Principal axes and moments of inertia in atomic units:
                           1         2         3
     Eigenvalues --    76.44515 498.86828 530.99048
           X            0.14827   0.98895   0.00000
           Y            0.98895  -0.14827   0.00000
           Z           -0.00000   0.00000   1.00000
 This molecule is an asymmetric top.
 Rotational symmetry number  2.
 Rotational temperatures (Kelvin)      1.13302     0.17362     0.16312
 Rotational constants (GHZ):          23.60832     3.61767     3.39882
 Zero-point vibrational energy     345171.9 (Joules/Mol)
                                   82.49807 (Kcal/Mol)
 Warning -- explicit consideration of   5 degrees of freedom as
           vibrations may cause significant error
 Vibrational temperatures:    171.94   316.96   369.92   372.65   610.87
          (Kelvin)           1060.83  1169.94  1208.33  1387.46  1410.94
                             1460.41  1528.18  1682.57  1742.65  1857.61
                             1911.05  1918.51  2004.55  2032.83  2034.98
                             2139.49  2145.48  2155.62  2157.63  2164.48
                             2176.73  4321.52  4333.43  4346.55  4349.67
                             4350.48  4379.83  4432.17  4437.97  4441.91
                             4443.14

 Zero-point correction=                           0.131469 (Hartree/Particle)
 Thermal correction to Energy=                    0.137270
 Thermal correction to Enthalpy=                  0.138214
 Thermal correction to Gibbs Free Energy=         0.104087
 Sum of electronic and zero-point Energies=           -158.393348
 Sum of electronic and thermal Energies=              -158.387547
 Sum of electronic and thermal Enthalpies=            -158.386603
 Sum of electronic and thermal Free Energies=         -158.420730

                     E (Thermal)             CV                S
                      KCal/Mol        Cal/Mol-Kelvin    Cal/Mol-Kelvin
 Total                   86.138             19.694             71.826
 Electronic               0.000              0.000              0.000
 Translational            0.889              2.981             38.098
 Rotational               0.889              2.981             23.141
 Vibrational             84.361             13.733             10.586
 Vibration     1          0.609              1.933              3.108
 Vibration     2          0.647              1.810              1.957
 Vibration     3          0.667              1.751              1.681
 Vibration     4          0.668              1.748              1.668
 Vibration     5          0.787              1.417              0.877

 Optimization completed.
    -- Stationary point found.
 Normal termination of Gaussian 16 at Wed Sep 27 17:42:36 2023.
 Gaussian 16:  ES64L-G16RevB.01 20-Dec-2017

 ---------------------------------
 # rohf/gen geom=check guess=check
 ---------------------------------

 --------------------------
 n-butane, ROHF/cc-pVTZ-F12
 --------------------------
 Structure from the checkpoint file:  "butane.chk"
 Charge =  0 Multiplicity = 1

                         Standard orientation:
 ---------------------------------------------------------------------
 Center     Atomic      Atomic             Coordinates (Angstroms)
 Number     Number       Type             X           Y           Z
 ---------------------------------------------------------------------
      1          6           0       -0.419954    0.639069    0.000000
      2          6           0        0.419954   -0.639069    0.000000
      3          6           0        0.419954    1.915287    0.000000
      4          6           0       -0.419954   -1.915287    0.000000
      5          1           0       -1.078375    0.634967    0.873996
      6          1           0       -1.078375    0.634967   -0.873996
      7          1           0        1.078375   -0.634967    0.873996
      8          1           0        1.078375   -0.634967   -0.873996
      9          1           0       -0.207683    2.807478    0.000000
     10          1           0        1.063716    1.963163    0.880651
     11          1           0        1.063716    1.963163   -0.880651
     12          1           0        0.207683   -2.807478    0.000000
     13          1           0       -1.063716   -1.963163    0.880651
     14          1           0       -1.063716   -1.963163   -0.880651
 ---------------------------------------------------------------------

 SCF Done:  E(ROHF) =  -157.364671032     A.U. after    9 cycles

 The electronic state is 1-AG.
 Alpha  occ. eigenvalues --  -11.21379 -11.21318 -11.20771 -11.20771  -1.06844
 Alpha  occ. eigenvalues --   -0.97963  -0.86087  -0.78731  -0.63689  -0.58368
 Alpha  occ. eigenvalues --   -0.57436  -0.56678  -0.51459  -0.49475  -0.46899
 Alpha  occ. eigenvalues --   -0.46113  -0.45675
 Alpha virt. eigenvalues --    0.04797   0.05351   0.05360   0.06841   0.07581
 Alpha virt. eigenvalues --    0.08778   0.09084   0.09579   0.10591   0.11563
 Alpha virt. eigenvalues --    0.12345   0.12454   0.16768   0.17259   0.18100

 Mulliken charges and spin densities:
               1          2
     1  C   -0.097531   0.000000
     2  C   -0.097531   0.000000
     3  C   -0.304921   0.000000
     4  C   -0.304921   0.000000
     5  H    0.072722   0.000000
     6  H    0.072722   0.000000
     7  H    0.072722   0.000000
     8  H    0.072722   0.000000
     9  H    0.084297   0.000000
    10  H    0.086355   0.000000
    11  H    0.086355   0.000000
    12  H    0.084297   0.000000
    13  H    0.086355   0.000000
    14  H    0.086355   0.000000
 Sum of Mulliken charges =  -0.00000   0.00000

 Dipole moment (field-independent basis, Debye):
    X=             -0.0000    Y=             -0.0000    Z=              0.0000  Tot=              0.0000
 Quadrupole moment (field-independent basis, Debye-Ang):
   XX=            -28.9185   YY=            -29.4120   ZZ=            -28.0916
   XY=             -0.4438   XZ=             -0.0000   YZ=             -0.0000

 Normal termination of Gaussian 16 at Wed Sep 27 17:43:40 2023.
