 Gaussian 16, Revision B.01,
 Gaussian 16:  ES64L-G16RevB.01 20-Dec-2017

 --------------------
 # b3lyp/gen opt freq
 --------------------

 --------------------------------------
 butadien-2-yl acetylene, B3LYP/pcseg-2
 --------------------------------------
 Symbolic Z-matrix:
 Charge =  0 Multiplicity = 1

 SCF Done:  E(RB3LYP) =  -232.233410577     A.U. after   14 cycles
 SCF Done:  E(RB3LYP) =  -232.233462222     A.U. after    9 cycles
 SCF Done:  E(RB3LYP) =  -232.232993210     A.U. after   11 cycles
 SCF Done:  E(RB3LYP) =  -232.233475001     A.U. after    9 cycles
 Optimization completed.
    -- Stationary point found.
 Normal termination of Gaussian 16 at Tue Jun 21 10:12:40 2022.

 ------------------------------------------------------------------
 #N Geom=AllCheck Guess=TCheck SCRF=Check GenChk RB3LYP/ChkBas Freq
 ------------------------------------------------------------------

 Structure from the checkpoint file:  "/wrk/irikura/Gau-23899.chk"
 --------------------------------------
 butadien-2-yl acetylene, B3LYP/pcseg-2
 --------------------------------------
 Charge =  0 Multiplicity = 1

                         Standard orientation:
 ---------------------------------------------------------------------
 Center     Atomic      Atomic             Coordinates (Angstroms)
 Number     Number       Type             X           Y           Z
 ---------------------------------------------------------------------
      1          6           0        0.180266    1.930955    0.000000
      2          6           0        0.000000    0.599178    0.000000
      3          6           0        1.125609   -0.283561    0.000000
      4          6           0        2.058288   -1.040700    0.000000
      5          6           0       -1.349279    0.017803    0.000000
      6          6           0       -1.634773   -1.282581    0.000000
      7          1           0        1.166834    2.369063    0.000000
      8          1           0       -0.667726    2.601917    0.000000
      9          1           0        2.890244   -1.699824    0.000000
     10          1           0       -0.856822   -2.034012    0.000000
     11          1           0       -2.658799   -1.627839    0.000000
     12          1           0       -2.154399    0.744134    0.000000
 ---------------------------------------------------------------------

 SCF Done:  E(RB3LYP) =  -232.233475001     A.U. after    1 cycles

 The electronic state is 1-A'.
 Alpha  occ. eigenvalues --  -10.21360 -10.18830 -10.18555 -10.18272 -10.17529
 Alpha  occ. eigenvalues --  -10.17500  -0.84232  -0.76179  -0.74162  -0.63035
 Alpha  occ. eigenvalues --   -0.59695  -0.52802  -0.48856  -0.48431  -0.42776
 Alpha  occ. eigenvalues --   -0.40274  -0.37149  -0.36892  -0.29155  -0.28818
 Alpha  occ. eigenvalues --   -0.24451
 Alpha virt. eigenvalues --   -0.05784   0.00442   0.02436   0.02509   0.03660
 Alpha virt. eigenvalues --    0.04410   0.05920   0.08708   0.09435   0.10117
 Alpha virt. eigenvalues --    0.12355   0.13801   0.15142   0.15378   0.18390

 Mulliken charges:
               1
     1  C   -0.141733
     2  C    0.220713
     3  C    0.010706
     4  C   -0.199207
     5  C   -0.116296
     6  C   -0.082841
     7  H    0.068422
     8  H    0.049628
     9  H    0.059880
    10  H    0.066376
    11  H    0.049417
    12  H    0.014936
 Sum of Mulliken charges =  -0.00000

 Dipole moment (field-independent basis, Debye):
    X=             -0.2467    Y=              0.1795    Z=              0.0000  Tot=              0.3051
 Quadrupole moment (field-independent basis, Debye-Ang):
   XX=            -31.6142   YY=            -31.8618   ZZ=            -40.3714
   XY=             -2.3331   XZ=              0.0000   YZ=              0.0000

  Exact polarizability:  80.300  -0.961  99.435  -0.000   0.000  40.485
 Approx polarizability: 112.933  -7.103 176.396  -0.000  -0.000  58.770

                      1                      2                      3
                     A"                     A'                     A"
 Frequencies --    150.1124               162.2606               264.1906
 Red. masses --      2.1394                 3.6445                 3.1286
 Frc consts  --      0.0284                 0.0565                 0.1287
 IR Inten    --      0.1805                 1.2317                10.3028

                      4                      5                      6
                     A'                     A'                     A"
 Frequencies --    309.9630               471.7257               502.0614
 Red. masses --      2.6949                 3.1702                 1.6720
 Frc consts  --      0.1526                 0.4156                 0.2483
 IR Inten    --      0.0567                 3.2461                 3.1209

                      7                      8                      9
                     A'                     A"                     A'
 Frequencies --    622.4071               661.6294               688.4436
 Red. masses --      3.4770                 1.2822                 1.2963
 Frc consts  --      0.7936                 0.3307                 0.3620
 IR Inten    --      7.3727                46.0560                41.1133

                     10                     11                     12
                     A"                     A'                     A"
 Frequencies --    718.9880               755.1631               777.2861
 Red. masses --      1.5522                 4.4559                 1.5631
 Frc consts  --      0.4728                 1.4972                 0.5564
 IR Inten    --      0.3130                 0.3830                 1.3412

                     13                     14                     15
                     A"                     A'                     A"
 Frequencies --    938.3612               948.1692               963.6178
 Red. masses --      1.3978                 1.6524                 1.3471
 Frc consts  --      0.7251                 0.8753                 0.7370
 IR Inten    --     45.3870                 2.3670                39.1210

                     16                     17                     18
                     A"                     A'                     A'
 Frequencies --   1023.1051              1065.0191              1317.7818
 Red. masses --      1.1308                 1.3755                 3.5600
 Frc consts  --      0.6974                 0.9192                 3.6424
 IR Inten    --     16.2439                 4.5594                 9.2337

                     19                     20                     21
                     A'                     A'                     A'
 Frequencies --   1329.7528              1420.8455              1460.9826
 Red. masses --      1.2641                 1.3049                 1.2160
 Frc consts  --      1.3170                 1.5521                 1.5293
 IR Inten    --      0.1526                 5.4379                 0.9818

                     22                     23                     24
                     A'                     A'                     A'
 Frequencies --   1633.4844              1686.6598              2205.4600
 Red. masses --      3.7676                 4.5242                 6.0959
 Frc consts  --      5.9231                 7.5830                17.4699
 IR Inten    --     24.0409                 2.5581                 0.7697

                     25                     26                     27
                     A'                     A'                     A'
 Frequencies --   3146.7143              3154.2584              3156.5870
 Red. masses --      1.0665                 1.0690                 1.0716
 Frc consts  --      6.2220                 6.2662                 6.2909
 IR Inten    --      4.3130                 1.9872                 6.4531

                     28                     29                     30
                     A'                     A'                     A'
 Frequencies --   3236.6669              3248.1997              3470.7524
 Red. masses --      1.1164                 1.1168                 1.1578
 Frc consts  --      6.8906                 6.9427                 8.2170
 IR Inten    --      6.0369                 3.5852                70.9086

 - Thermochemistry -
 -------------------
 Temperature   298.150 Kelvin.  Pressure   1.00000 Atm.
 Atom     1 has atomic number  6 and mass  12.00000

 Molecular mass:    78.04695 amu.
 Principal axes and moments of inertia in atomic units:
                           1         2         3
     Eigenvalues --   376.90599 510.89878 887.80477
           X            1.00000  -0.00296   0.00000
           Y            0.00296   1.00000   0.00000
           Z            0.00000   0.00000   1.00000
 This molecule is an asymmetric top.
 Rotational symmetry number  1.
 Rotational temperatures (Kelvin)      0.22980     0.16953     0.09756
 Rotational constants (GHZ):           4.78831     3.53248     2.03281
 Zero-point vibrational energy     248169.2 (Joules/Mol)
                                   59.31386 (Kcal/Mol)
 Warning -- explicit consideration of   6 degrees of freedom as
           vibrations may cause significant error
 Vibrational temperatures:    215.98   233.46   380.11   445.97   678.71
          (Kelvin)            722.35   895.51   951.94   990.52  1034.46
                             1086.51  1118.34  1350.09  1364.20  1386.43
                             1472.02  1532.32  1895.99  1913.22  2044.28
                             2102.03  2350.22  2426.73  3173.17  4527.42
                             4538.27  4541.62  4656.84  4673.43  4993.64

 Zero-point correction=                           0.094523 (Hartree/Particle)
 Thermal correction to Energy=                    0.100876
 Thermal correction to Enthalpy=                  0.101820
 Thermal correction to Gibbs Free Energy=         0.064934
 Sum of electronic and zero-point Energies=           -232.138952
 Sum of electronic and thermal Energies=              -232.132599
 Sum of electronic and thermal Enthalpies=            -232.131655
 Sum of electronic and thermal Free Energies=         -232.168541

                     E (Thermal)             CV                S
                      KCal/Mol        Cal/Mol-Kelvin    Cal/Mol-Kelvin
 Total                   63.300             23.174             77.632
 Electronic               0.000              0.000              0.000
 Translational            0.889              2.981             38.979
 Rotational               0.889              2.981             26.639
 Vibrational             61.523             17.212             12.015
 Vibration     1          0.618              1.903              2.671
 Vibration     2          0.622              1.889              2.523
 Vibration     3          0.671              1.739              1.634
 Vibration     4          0.699              1.655              1.363
 Vibration     5          0.829              1.313              0.733
 Vibration     6          0.857              1.245              0.653

 Optimization completed.
    -- Stationary point found.
 Normal termination of Gaussian 16 at Tue Jun 21 10:15:14 2022.
