 Gaussian 16, Revision B.01,

 ---------------------------------------
 # b3lyp/gen opt freq CPHF(Grid=OneStep)
 ---------------------------------------

 --------------------------------
 1,3-butadien-2-ol, B3LYP/pcseg-2
 --------------------------------
 Symbolic Z-matrix:
 Charge =  0 Multiplicity = 1

 SCF Done:  E(RB3LYP) =  -231.318613226     A.U. after   13 cycles
 Optimization completed.
    -- Stationary point found.
 Normal termination of Gaussian 16 at Sat Sep 30 12:41:33 2023.

 ------------------------------------------------------------------
 #N Geom=AllCheck Guess=TCheck SCRF=Check GenChk RB3LYP/ChkBas Freq
 ------------------------------------------------------------------

 Structure from the checkpoint file:  "butadien2ol.chk"
 --------------------------------
 1,3-butadien-2-ol, B3LYP/pcseg-2
 --------------------------------
 Charge =  0 Multiplicity = 1

 SCF Done:  E(RB3LYP) =  -231.318613226     A.U. after    1 cycles

  Exact polarizability:  50.582  -8.165  87.453   0.000   0.000  34.198
 Approx polarizability:  73.318 -22.248 136.996  -0.000  -0.000  48.949

                      1                      2                      3
                     A"                     A'                     A"
 Frequencies --    148.6242               276.4514               385.3440
 Red. masses --      2.3026                 3.0971                 1.0895
 Frc consts  --      0.0300                 0.1395                 0.0953
 IR Inten    --      4.8994                 1.7827                91.3938

                      4                      5                      6
                     A'                     A"                     A'
 Frequencies --    450.8449               461.7908               582.1013
 Red. masses --      2.4604                 1.4894                 2.9856
 Frc consts  --      0.2946                 0.1871                 0.5960
 IR Inten    --      9.5951                13.5528                11.4644

                      7                      8                      9
                     A"                     A"                     A"
 Frequencies --    709.4384               762.8710               826.3041
 Red. masses --      1.2152                 1.9025                 1.5595
 Frc consts  --      0.3603                 0.6524                 0.6273
 IR Inten    --      0.3477                 0.2917                71.3941

                     10                     11                     12
                     A'                     A"                     A'
 Frequencies --    831.2470               964.6790               980.5518
 Red. masses --      2.7792                 1.3516                 1.8456
 Frc consts  --      1.1315                 0.7411                 1.0455
 IR Inten    --      0.8398                43.5959                29.1182

                     13                     14                     15
                     A"                     A'                     A'
 Frequencies --   1021.2385              1053.7553              1208.3826
 Red. masses --      1.1117                 1.4425                 1.4060
 Frc consts  --      0.6831                 0.9437                 1.2096
 IR Inten    --     17.2099                39.6028               107.5461

                     16                     17                     18
                     A'                     A'                     A'
 Frequencies --   1324.8193              1384.2745              1425.1434
 Red. masses --      1.3479                 2.1266                 1.2849
 Frc consts  --      1.3939                 2.4009                 1.5376
 IR Inten    --      7.6936                15.6292                16.4017

                     19                     20                     21
                     A'                     A'                     A'
 Frequencies --   1474.1851              1648.5326              1707.2147
 Red. masses --      1.2886                 4.1578                 4.9626
 Frc consts  --      1.6500                 6.6575                 8.5220
 IR Inten    --      0.2678               108.0324                25.9949

                     22                     23                     24
                     A'                     A'                     A'
 Frequencies --   3155.7077              3157.1689              3174.4698
 Red. masses --      1.0601                 1.0597                 1.0915
 Frc consts  --      6.2199                 6.2232                 6.4805
 IR Inten    --      2.5178                 4.3319                 4.1454

                     25                     26                     27
                     A'                     A'                     A'
 Frequencies --   3244.6921              3250.2209              3825.7233
 Red. masses --      1.1164                 1.1139                 1.0658
 Frc consts  --      6.9250                 6.9332                 9.1907
 IR Inten    --      3.6460                 7.1094                44.5394

 - Thermochemistry -
 -------------------
 Temperature   298.150 Kelvin.  Pressure   1.00000 Atm.
 Atom     1 has atomic number  6 and mass  12.00000

 Molecular mass:    70.04186 amu.
 Principal axes and moments of inertia in atomic units:
                           1         2         3
     Eigenvalues --   181.45741 421.56949 603.02690
           X            0.10492   0.99448   0.00000
           Y            0.99448  -0.10492   0.00000
           Z            0.00000  -0.00000   1.00000
 This molecule is an asymmetric top.
 Rotational symmetry number  1.
 Rotational temperatures (Kelvin)      0.47732     0.20546     0.14363
 Rotational constants (GHZ):           9.94581     4.28101     2.99280
 Zero-point vibrational energy     235878.3 (Joules/Mol)
                                   56.37627 (Kcal/Mol)
 Warning -- explicit consideration of   6 degrees of freedom as
           vibrations may cause significant error
 Vibrational temperatures:    213.84   397.75   554.42   648.67   664.41
          (Kelvin)            837.51  1020.72  1097.60  1188.87  1195.98
                             1387.96  1410.80  1469.33  1516.12  1738.59
                             1906.12  1991.66  2050.46  2121.02  2371.87
                             2456.30  4540.36  4542.46  4567.35  4668.39
                             4676.34  5504.36

 Zero-point correction=                           0.089841 (Hartree/Particle)
 Thermal correction to Energy=                    0.095318
 Thermal correction to Enthalpy=                  0.096262
 Thermal correction to Gibbs Free Energy=         0.061724
 Sum of electronic and zero-point Energies=           -231.228772
 Sum of electronic and thermal Energies=              -231.223296
 Sum of electronic and thermal Enthalpies=            -231.222351
 Sum of electronic and thermal Free Energies=         -231.256890

                     E (Thermal)             CV                S
                      KCal/Mol        Cal/Mol-Kelvin    Cal/Mol-Kelvin
 Total                   59.813             19.782             72.692
 Electronic               0.000              0.000              0.000
 Translational            0.889              2.981             38.657
 Rotational               0.889              2.981             25.337
 Vibrational             58.035             13.820              8.698
 Vibration     1          0.618              1.904              2.690
 Vibration     2          0.678              1.717              1.556
 Vibration     3          0.754              1.501              1.018
 Vibration     4          0.810              1.359              0.793
 Vibration     5          0.820              1.335              0.761
 Vibration     6          0.939              1.070              0.481

 Optimization completed.
    -- Stationary point found.
 Normal termination of Gaussian 16 at Sat Sep 30 12:48:45 2023.
 Gaussian 16:  ES64L-G16RevB.01 20-Dec-2017

 ---------------------------------
 # rohf/gen geom=check guess=check
 ---------------------------------

 -----------------------------------
 1,3-butadien-2-ol, ROHF/cc-pVTZ-F12
 -----------------------------------
 Structure from the checkpoint file:  "butadien2ol.chk"
 Charge =  0 Multiplicity = 1

                         Standard orientation:
 ---------------------------------------------------------------------
 Center     Atomic      Atomic             Coordinates (Angstroms)
 Number     Number       Type             X           Y           Z
 ---------------------------------------------------------------------
      1          6           0       -0.598245    1.711121    0.000000
      2          6           0        0.000000    0.513327    0.000000
      3          8           0        1.356569    0.347223    0.000000
      4          6           0       -0.742843   -0.743057    0.000000
      5          6           0       -0.190204   -1.954580    0.000000
      6          1           0       -1.674070    1.782374    0.000000
      7          1           0       -0.035547    2.635018    0.000000
      8          1           0        0.882232   -2.085492    0.000000
      9          1           0       -0.802302   -2.845108    0.000000
     10          1           0       -1.819759   -0.633387    0.000000
     11          1           0        1.784648    1.207950    0.000000
 ---------------------------------------------------------------------

 SCF Done:  E(ROHF) =  -229.885844623     A.U. after   11 cycles

 The electronic state is 1-A'.
 Alpha  occ. eigenvalues --  -20.58783 -11.30607 -11.23837 -11.23073 -11.21610
 Alpha  occ. eigenvalues --   -1.40621  -1.08271  -1.00392  -0.84899  -0.77519
 Alpha  occ. eigenvalues --   -0.68623  -0.65746  -0.61969  -0.58795  -0.55447
 Alpha  occ. eigenvalues --   -0.54536  -0.51478  -0.41493  -0.32211
 Alpha virt. eigenvalues --    0.04415   0.05138   0.05497   0.07098   0.07310
 Alpha virt. eigenvalues --    0.08005   0.09480   0.10640   0.10820   0.11370
 Alpha virt. eigenvalues --    0.11856   0.12385   0.15150   0.15912   0.18212

 Mulliken charges and spin densities:
               1          2
     1  C   -0.396696   0.000000
     2  C    0.411950   0.000000
     3  O   -0.758645   0.000000
     4  C   -0.122509   0.000000
     5  C   -0.341494   0.000000
     6  H    0.138395   0.000000
     7  H    0.131078   0.000000
     8  H    0.168673   0.000000
     9  H    0.157425   0.000000
    10  H    0.169394   0.000000
    11  H    0.442429   0.000000
 Sum of Mulliken charges =  -0.00000   0.00000

 Dipole moment (field-independent basis, Debye):
    X=             -0.0547    Y=              0.7943    Z=              0.0000  Tot=              0.7962
 Quadrupole moment (field-independent basis, Debye-Ang):
   XX=            -27.8008   YY=            -26.1084   ZZ=            -34.8528
   XY=              3.0341   XZ=              0.0000   YZ=              0.0000

 Normal termination of Gaussian 16 at Sat Sep 30 12:52:11 2023.
