 Gaussian 16, Revision B.01,
 Gaussian 16:  ES64L-G16RevB.01 20-Dec-2017

 --------------------
 # b3lyp/gen opt freq
 --------------------

 -----------------------
 n-butane, B3LYP/pcseg-2
 -----------------------
 Symbolic Z-matrix:
 Charge =  0 Multiplicity = 1

 SCF Done:  E(RB3LYP) =  -158.524815347     A.U. after   11 cycles
 SCF Done:  E(RB3LYP) =  -158.524817369     A.U. after    6 cycles
 Optimization completed.
    -- Stationary point found.
 Normal termination of Gaussian 16 at Tue Jun 14 20:56:32 2022.

 ------------------------------------------------------------------
 #N Geom=AllCheck Guess=TCheck SCRF=Check GenChk RB3LYP/ChkBas Freq
 ------------------------------------------------------------------

 Structure from the checkpoint file:  "/wrk/irikura/Gau-12410.chk"
 -----------------------
 n-butane, B3LYP/pcseg-2
 -----------------------
 Charge =  0 Multiplicity = 1

                         Standard orientation:
 ---------------------------------------------------------------------
 Center     Atomic      Atomic             Coordinates (Angstroms)
 Number     Number       Type             X           Y           Z
 ---------------------------------------------------------------------
      1          6           0       -0.419954    0.639069    0.000000
      2          6           0        0.419954   -0.639069    0.000000
      3          6           0        0.419954    1.915287    0.000000
      4          6           0       -0.419954   -1.915287    0.000000
      5          1           0       -1.078375    0.634967    0.873996
      6          1           0       -1.078375    0.634967   -0.873996
      7          1           0        1.078375   -0.634967    0.873996
      8          1           0        1.078375   -0.634967   -0.873996
      9          1           0       -0.207683    2.807478    0.000000
     10          1           0        1.063716    1.963163    0.880651
     11          1           0        1.063716    1.963163   -0.880651
     12          1           0        0.207683   -2.807478    0.000000
     13          1           0       -1.063716   -1.963163    0.880651
     14          1           0       -1.063716   -1.963163   -0.880651
 ---------------------------------------------------------------------

 SCF Done:  E(RB3LYP) =  -158.524817369     A.U. after    1 cycles

 The electronic state is 1-AG.
 Alpha  occ. eigenvalues --  -10.16306 -10.16283 -10.15667 -10.15667  -0.79467
 Alpha  occ. eigenvalues --   -0.72476  -0.63171  -0.57740  -0.47052  -0.42839
 Alpha  occ. eigenvalues --   -0.42133  -0.41315  -0.37099  -0.35292  -0.33646
 Alpha  occ. eigenvalues --   -0.32521  -0.32484
 Alpha virt. eigenvalues --    0.01659   0.03196   0.04578   0.04775   0.07361
 Alpha virt. eigenvalues --    0.08302   0.09266   0.09978   0.10619   0.11993
 Alpha virt. eigenvalues --    0.13371   0.13802   0.17578   0.18964   0.19477

 Mulliken charges:
               1
     1  C   -0.012201
     2  C   -0.012201
     3  C   -0.071888
     4  C   -0.071888
     5  H    0.008758
     6  H    0.008758
     7  H    0.008758
     8  H    0.008758
     9  H    0.031201
    10  H    0.017686
    11  H    0.017686
    12  H    0.031201
    13  H    0.017686
    14  H    0.017686
 Sum of Mulliken charges =  -0.00000

 Dipole moment (field-independent basis, Debye):
    X=             -0.0000    Y=             -0.0000    Z=             -0.0000  Tot=              0.0000
 Quadrupole moment (field-independent basis, Debye-Ang):
   XX=            -29.1084   YY=            -29.4936   ZZ=            -28.2561
   XY=             -0.4593   XZ=              0.0000   YZ=             -0.0000

  Exact polarizability:  49.972   2.079  59.708   0.000  -0.000  47.086
 Approx polarizability:  68.900   0.198  68.815   0.000   0.000  68.203

                      1                      2                      3
                     AU                     AU                     BG
 Frequencies --    119.5021               220.2971               257.1043
 Red. masses --      1.9189                 1.0590                 1.1217
 Frc consts  --      0.0161                 0.0303                 0.0437
 IR Inten    --      0.0162                 0.0000                 0.0000

                      4                      5                      6
                     BU                     AG                     AU
 Frequencies --    259.0066               424.5769               737.3149
 Red. masses --      2.2466                 2.7313                 1.0715
 Frc consts  --      0.0888                 0.2901                 0.3432
 IR Inten    --      0.0081                 0.0000                 3.3107

                      7                      8                      9
                     BG                     AG                     AU
 Frequencies --    813.1494               839.8304               964.3375
 Red. masses --      1.1256                 1.9867                 1.1211
 Frc consts  --      0.4385                 0.8256                 0.6143
 IR Inten    --      0.0000                 0.0000                 0.7742

                     10                     11                     12
                     BU                     BU                     AG
 Frequencies --    980.6498              1015.0333              1062.1388
 Red. masses --      1.3932                 2.5969                 2.4806
 Frc consts  --      0.7894                 1.5764                 1.6488
 IR Inten    --      5.1256                 0.1085                 0.0000

                     13                     14                     15
                     AG                     BG                     AU
 Frequencies --   1169.4456              1211.2016              1291.1055
 Red. masses --      2.0464                 1.7541                 1.2457
 Frc consts  --      1.6490                 1.5161                 1.2235
 IR Inten    --      0.0000                 0.0000                 0.2383

                     16                     17                     18
                     BU                     BG                     AG
 Frequencies --   1328.2416              1333.4257              1393.2353
 Red. masses --      1.3458                 1.0696                 1.5455
 Frc consts  --      1.3989                 1.1205                 1.7675
 IR Inten    --      2.8954                 0.0000                 0.0000

                     19                     20                     21
                     AG                     BU                     AG
 Frequencies --   1412.8879              1414.3786              1487.0219
 Red. masses --      1.2197                 1.2384                 1.0623
 Frc consts  --      1.4346                 1.4596                 1.3840
 IR Inten    --      0.0000                 4.8257                 0.0000

                     22                     23                     24
                     BU                     BG                     AU
 Frequencies --   1491.1862              1498.2279              1499.6219
 Red. masses --      1.0477                 1.0438                 1.0362
 Frc consts  --      1.3726                 1.3804                 1.3729
 IR Inten    --      2.2882                 0.0000                14.9254

                     25                     26                     27
                     AG                     BU                     AG
 Frequencies --   1504.3880              1512.9025              3003.6114
 Red. masses --      1.0637                 1.0892                 1.0577
 Frc consts  --      1.4184                 1.4688                 5.6222
 IR Inten    --      0.0000                 9.4941                 0.0000

                     28                     29                     30
                     BU                     BG                     BU
 Frequencies --   3011.8900              3021.0030              3023.1706
 Red. masses --      1.0590                 1.1004                 1.0361
 Frc consts  --      5.6600                 5.9170                 5.5791
 IR Inten    --     45.6374                 0.0000                84.3919

                     31                     32                     33
                     AG                     AU                     BG
 Frequencies --   3023.7356              3044.1393              3080.5126
 Red. masses --      1.0357                 1.1043                 1.1025
 Frc consts  --      5.5790                 6.0293                 6.1641
 IR Inten    --      0.0000                20.2059                 0.0000

                     34                     35                     36
                     AU                     AG                     BU
 Frequencies --   3084.5466              3087.2829              3088.1350
 Red. masses --      1.1023                 1.1011                 1.1007
 Frc consts  --      6.1792                 6.1832                 6.1847
 IR Inten    --    113.7204                 0.0000                79.4304

 - Thermochemistry -
 -------------------
 Temperature   298.150 Kelvin.  Pressure   1.00000 Atm.
 Atom     1 has atomic number  6 and mass  12.00000

 Molecular mass:    58.07825 amu.
 Principal axes and moments of inertia in atomic units:
                           1         2         3
     Eigenvalues --    76.44509 498.86826 530.99043
           X            0.14827   0.98895   0.00000
           Y            0.98895  -0.14827   0.00000
           Z           -0.00000  -0.00000   1.00000
 This molecule is an asymmetric top.
 Rotational symmetry number  2.
 Rotational temperatures (Kelvin)      1.13302     0.17362     0.16312
 Rotational constants (GHZ):          23.60833     3.61767     3.39882
 Zero-point vibrational energy     345171.9 (Joules/Mol)
                                   82.49807 (Kcal/Mol)
 Warning -- explicit consideration of   5 degrees of freedom as
           vibrations may cause significant error
 Vibrational temperatures:    171.94   316.96   369.92   372.65   610.87
          (Kelvin)           1060.83  1169.94  1208.33  1387.47  1410.94
                             1460.41  1528.18  1682.57  1742.65  1857.61
                             1911.04  1918.50  2004.55  2032.83  2034.98
                             2139.49  2145.48  2155.62  2157.62  2164.48
                             2176.73  4321.53  4333.44  4346.55  4349.67
                             4350.48  4379.84  4432.17  4437.97  4441.91
                             4443.14

 Zero-point correction=                           0.131469 (Hartree/Particle)
 Thermal correction to Energy=                    0.137270
 Thermal correction to Enthalpy=                  0.138214
 Thermal correction to Gibbs Free Energy=         0.104087
 Sum of electronic and zero-point Energies=           -158.393348
 Sum of electronic and thermal Energies=              -158.387547
 Sum of electronic and thermal Enthalpies=            -158.386603
 Sum of electronic and thermal Free Energies=         -158.420730

                     E (Thermal)             CV                S
                      KCal/Mol        Cal/Mol-Kelvin    Cal/Mol-Kelvin
 Total                   86.138             19.694             71.826
 Electronic               0.000              0.000              0.000
 Translational            0.889              2.981             38.098
 Rotational               0.889              2.981             23.141
 Vibrational             84.361             13.733             10.586
 Vibration     1          0.609              1.933              3.108
 Vibration     2          0.647              1.810              1.957
 Vibration     3          0.667              1.751              1.681
 Vibration     4          0.668              1.748              1.668
 Vibration     5          0.787              1.417              0.877

 Optimization completed.
    -- Stationary point found.
 Normal termination of Gaussian 16 at Tue Jun 14 21:00:43 2022.
