 Gaussian 16, Revision B.01,
 Gaussian 16:  ES64L-G16RevB.01 20-Dec-2017

 --------------------
 # b3lyp/gen opt freq
 --------------------

 --------------------------------
 1,3-butadien-2-ol, B3LYP/pcseg-2
 --------------------------------
 Symbolic Z-matrix:
 Charge =  0 Multiplicity = 1

 SCF Done:  E(RB3LYP) =  -231.318539211     A.U. after   13 cycles
 SCF Done:  E(RB3LYP) =  -231.318610178     A.U. after    9 cycles
 SCF Done:  E(RB3LYP) =  -231.318613226     A.U. after    7 cycles
 Optimization completed.
    -- Stationary point found.
 Normal termination of Gaussian 16 at Tue Jun 21 11:48:32 2022.

 ------------------------------------------------------------------
 #N Geom=AllCheck Guess=TCheck SCRF=Check GenChk RB3LYP/ChkBas Freq
 ------------------------------------------------------------------

 Structure from the checkpoint file:  "/wrk/irikura/Gau-30523.chk"
 --------------------------------
 1,3-butadien-2-ol, B3LYP/pcseg-2
 --------------------------------
 Charge =  0 Multiplicity = 1

                         Standard orientation:
 ---------------------------------------------------------------------
 Center     Atomic      Atomic             Coordinates (Angstroms)
 Number     Number       Type             X           Y           Z
 ---------------------------------------------------------------------
      1          6           0       -0.598245    1.711121    0.000000
      2          6           0        0.000000    0.513327    0.000000
      3          8           0        1.356569    0.347223    0.000000
      4          6           0       -0.742843   -0.743057    0.000000
      5          6           0       -0.190205   -1.954580    0.000000
      6          1           0       -1.674070    1.782375    0.000000
      7          1           0       -0.035546    2.635018    0.000000
      8          1           0        0.882231   -2.085492    0.000000
      9          1           0       -0.802303   -2.845108    0.000000
     10          1           0       -1.819759   -0.633386    0.000000
     11          1           0        1.784648    1.207950    0.000000
 ---------------------------------------------------------------------

 SCF Done:  E(RB3LYP) =  -231.318613226     A.U. after    1 cycles

 The electronic state is 1-A'.
 Alpha  occ. eigenvalues --  -19.15827 -10.24277 -10.18186 -10.17172 -10.16352
 Alpha  occ. eigenvalues --   -1.06870  -0.80464  -0.74139  -0.63355  -0.58045
 Alpha  occ. eigenvalues --   -0.50010  -0.48502  -0.45178  -0.41272  -0.40025
 Alpha  occ. eigenvalues --   -0.37797  -0.36736  -0.29596  -0.23370
 Alpha virt. eigenvalues --   -0.03783   0.00381   0.03468   0.04707   0.06555
 Alpha virt. eigenvalues --    0.06857   0.07856   0.10792   0.14255   0.15796
 Alpha virt. eigenvalues --    0.16818   0.18823   0.20572   0.21770   0.23110

 Mulliken charges:
               1
     1  C   -0.191869
     2  C    0.316951
     3  O   -0.374665
     4  C   -0.052014
     5  C   -0.103831
     6  H    0.049724
     7  H    0.028365
     8  H    0.063922
     9  H    0.044949
    10  H    0.028211
    11  H    0.190256
 Sum of Mulliken charges =  -0.00000

 Dipole moment (field-independent basis, Debye):
    X=              0.0326    Y=              0.9183    Z=              0.0000  Tot=              0.9189
 Quadrupole moment (field-independent basis, Debye-Ang):
   XX=            -27.8056   YY=            -26.7960   ZZ=            -34.5022
   XY=              3.1152   XZ=              0.0000   YZ=              0.0000

  Exact polarizability:  50.582  -8.163  87.452  -0.000  -0.000  34.198
 Approx polarizability:  73.318 -22.248 136.997  -0.000  -0.000  48.949

                      1                      2                      3
                     A"                     A'                     A"
 Frequencies --    148.6228               276.4508               385.3482
 Red. masses --      2.3026                 3.0971                 1.0895
 Frc consts  --      0.0300                 0.1395                 0.0953
 IR Inten    --      4.9002                 1.7828                91.3907

                      4                      5                      6
                     A'                     A"                     A'
 Frequencies --    450.8458               461.7946               582.1031
 Red. masses --      2.4604                 1.4894                 2.9856
 Frc consts  --      0.2946                 0.1871                 0.5960
 IR Inten    --      9.5954                13.5612                11.4648

                      7                      8                      9
                     A"                     A"                     A"
 Frequencies --    709.4401               762.8718               826.3064
 Red. masses --      1.2152                 1.9026                 1.5594
 Frc consts  --      0.3603                 0.6524                 0.6273
 IR Inten    --      0.3480                 0.2914                71.3909

                     10                     11                     12
                     A'                     A"                     A'
 Frequencies --    831.2461               964.6792               980.5523
 Red. masses --      2.7792                 1.3516                 1.8456
 Frc consts  --      1.1314                 0.7411                 1.0455
 IR Inten    --      0.8395                43.5962                29.1142

                     13                     14                     15
                     A"                     A'                     A'
 Frequencies --   1021.2366              1053.7542              1208.3780
 Red. masses --      1.1117                 1.4425                 1.4060
 Frc consts  --      0.6831                 0.9437                 1.2096
 IR Inten    --     17.2065                39.6053               107.5505

                     16                     17                     18
                     A'                     A'                     A'
 Frequencies --   1324.8151              1384.2699              1425.1408
 Red. masses --      1.3479                 2.1266                 1.2849
 Frc consts  --      1.3939                 2.4009                 1.5376
 IR Inten    --      7.6941                15.6264                16.4037

                     19                     20                     21
                     A'                     A'                     A'
 Frequencies --   1474.1845              1648.5421              1707.2152
 Red. masses --      1.2887                 4.1579                 4.9626
 Frc consts  --      1.6500                 6.6578                 8.5219
 IR Inten    --      0.2676               108.0462                25.9952

                     22                     23                     24
                     A'                     A'                     A'
 Frequencies --   3155.6999              3157.1655              3174.4696
 Red. masses --      1.0601                 1.0596                 1.0915
 Frc consts  --      6.2200                 6.2231                 6.4804
 IR Inten    --      2.5243                 4.3271                 4.1440

                     25                     26                     27
                     A'                     A'                     A'
 Frequencies --   3244.6900              3250.2108              3825.7078
 Red. masses --      1.1164                 1.1139                 1.0658
 Frc consts  --      6.9250                 6.9331                 9.1906
 IR Inten    --      3.6440                 7.1151                44.5337

 - Thermochemistry -
 -------------------
 Temperature   298.150 Kelvin.  Pressure   1.00000 Atm.
 Atom     1 has atomic number  6 and mass  12.00000

 Molecular mass:    70.04186 amu.
 Principal axes and moments of inertia in atomic units:
                           1         2         3
     Eigenvalues --   181.45741 421.56945 603.02686
           X            0.10492   0.99448   0.00000
           Y            0.99448  -0.10492   0.00000
           Z            0.00000  -0.00000   1.00000
 This molecule is an asymmetric top.
 Rotational symmetry number  1.
 Rotational temperatures (Kelvin)      0.47732     0.20546     0.14363
 Rotational constants (GHZ):           9.94581     4.28101     2.99280
 Zero-point vibrational energy     235878.1 (Joules/Mol)
                                   56.37622 (Kcal/Mol)
 Warning -- explicit consideration of   6 degrees of freedom as
           vibrations may cause significant error
 Vibrational temperatures:    213.84   397.75   554.43   648.67   664.42
          (Kelvin)            837.52  1020.73  1097.60  1188.87  1195.98
                             1387.96  1410.80  1469.33  1516.12  1738.59
                             1906.11  1991.66  2050.46  2121.02  2371.88
                             2456.30  4540.35  4542.46  4567.35  4668.39
                             4676.33  5504.34

 Zero-point correction=                           0.089841 (Hartree/Particle)
 Thermal correction to Energy=                    0.095318
 Thermal correction to Enthalpy=                  0.096262
 Thermal correction to Gibbs Free Energy=         0.061723
 Sum of electronic and zero-point Energies=           -231.228772
 Sum of electronic and thermal Energies=              -231.223296
 Sum of electronic and thermal Enthalpies=            -231.222351
 Sum of electronic and thermal Free Energies=         -231.256890

                     E (Thermal)             CV                S
                      KCal/Mol        Cal/Mol-Kelvin    Cal/Mol-Kelvin
 Total                   59.813             19.782             72.692
 Electronic               0.000              0.000              0.000
 Translational            0.889              2.981             38.657
 Rotational               0.889              2.981             25.337
 Vibrational             58.035             13.820              8.698
 Vibration     1          0.618              1.904              2.690
 Vibration     2          0.678              1.717              1.556
 Vibration     3          0.754              1.501              1.018
 Vibration     4          0.810              1.359              0.793
 Vibration     5          0.820              1.335              0.761
 Vibration     6          0.939              1.070              0.481

 Optimization completed.
    -- Stationary point found.
 Normal termination of Gaussian 16 at Tue Jun 21 11:50:22 2022.
