 Gaussian 16, Revision B.01,
 Gaussian 16:  ES64L-G16RevB.01 20-Dec-2017

 -------------------------------
 # b3lyp/gen opt freq symm=loose
 -------------------------------

 -------------------------------
 2-butene (trans), B3LYP/pcseg-2
 -------------------------------
 Symbolic Z-matrix:
 Charge =  0 Multiplicity = 1

 SCF Done:  E(RB3LYP) =  -157.294128503     A.U. after   10 cycles
 SCF Done:  E(RB3LYP) =  -157.294203196     A.U. after    7 cycles
 SCF Done:  E(RB3LYP) =  -157.294204122     A.U. after    5 cycles
 Optimization completed.
    -- Stationary point found.
 Normal termination of Gaussian 16 at Fri Sep  8 17:49:26 2023.

 ------------------------------------------------------------------
 #N Geom=AllCheck Guess=TCheck SCRF=Check GenChk RB3LYP/ChkBas Freq
 ------------------------------------------------------------------

 Structure from the checkpoint file:  "/wrk/irikura/Gau-12317.chk"
 -------------------------------
 2-butene (trans), B3LYP/pcseg-2
 -------------------------------
 Charge =  0 Multiplicity = 1

                         Standard orientation:
 ---------------------------------------------------------------------
 Center     Atomic      Atomic             Coordinates (Angstroms)
 Number     Number       Type             X           Y           Z
 ---------------------------------------------------------------------
      1          6           0        0.323025    0.580560    0.000000
      2          6           0       -0.323025   -0.580560    0.000000
      3          6           0       -0.323025    1.931576    0.000000
      4          6           0        0.323025   -1.931576    0.000000
      5          1           0        1.410423    0.570280    0.000000
      6          1           0       -1.410423   -0.570280    0.000000
      7          1           0       -1.410509    1.854813    0.000000
      8          1           0        1.410509   -1.854813    0.000000
      9          1           0       -0.024783    2.513242    0.876252
     10          1           0       -0.024783    2.513242   -0.876252
     11          1           0        0.024783   -2.513242    0.876252
     12          1           0        0.024783   -2.513242   -0.876252
 ---------------------------------------------------------------------

 SCF Done:  E(RB3LYP) =  -157.294204122     A.U. after    1 cycles

 The electronic state is 1-AG.
 Alpha  occ. eigenvalues --  -10.16587 -10.16494 -10.16395 -10.16394  -0.79869
 Alpha  occ. eigenvalues --   -0.72903  -0.64468  -0.54767  -0.44644  -0.44388
 Alpha  occ. eigenvalues --   -0.41853  -0.40445  -0.37592  -0.36447  -0.34227
 Alpha  occ. eigenvalues --   -0.24697
 Alpha virt. eigenvalues --    0.01541   0.02194   0.03240   0.04177   0.07853
 Alpha virt. eigenvalues --    0.07900   0.08095   0.09195   0.11042   0.13582
 Alpha virt. eigenvalues --    0.15230   0.15635   0.19208   0.19521   0.20015

 Mulliken charges:
               1
     1  C   -0.059206
     2  C   -0.059206
     3  C   -0.038273
     4  C   -0.038273
     5  H    0.017421
     6  H    0.017421
     7  H    0.019317
     8  H    0.019317
     9  H    0.030371
    10  H    0.030371
    11  H    0.030371
    12  H    0.030371
 Sum of Mulliken charges =   0.00000

 Dipole moment (field-independent basis, Debye):
    X=             -0.0000    Y=             -0.0000    Z=             -0.0000  Tot=              0.0000
 Quadrupole moment (field-independent basis, Debye-Ang):
   XX=            -26.0412   YY=            -25.8024   ZZ=            -28.3609
   XY=              0.3424   XZ=              0.0000   YZ=             -0.0000

  Exact polarizability:  46.811   2.280  69.690   0.000  -0.000  38.921
 Approx polarizability:  67.677  10.413  89.007   0.000  -0.000  55.668

                      1                      2                      3
                     AU                     BG                     AU
 Frequencies --    176.0865               229.2699               245.7595
 Red. masses --      1.0602                 1.2570                 2.1670
 Frc consts  --      0.0194                 0.0389                 0.0771
 IR Inten    --      1.2300                 0.0000                 4.0458

                      4                      5                      6
                     BU                     AG                     BG
 Frequencies --    282.9498               503.1824               764.1789
 Red. masses --      2.3385                 2.7534                 1.2930
 Frc consts  --      0.1103                 0.4107                 0.4449
 IR Inten    --      1.1643                 0.0000                 0.0000

                      7                      8                      9
                     AG                     BU                     AU
 Frequencies --    875.1710               990.7744               999.6330
 Red. masses --      1.7489                 1.2507                 1.0545
 Frc consts  --      0.7892                 0.7234                 0.6209
 IR Inten    --      0.0000                14.1796                39.5635

                     10                     11                     12
                     AU                     BU                     BG
 Frequencies --   1069.9206              1073.6791              1073.8028
 Red. masses --      1.4428                 3.3241                 1.6307
 Frc consts  --      0.9731                 2.2578                 1.1078
 IR Inten    --      2.0064                 3.5301                 0.0000

                     13                     14                     15
                     AG                     BU                     AG
 Frequencies --   1168.3801              1334.7710              1337.4807
 Red. masses --      2.0137                 1.2805                 1.2685
 Frc consts  --      1.6197                 1.3442                 1.3370
 IR Inten    --      0.0000                 4.9720                 0.0000

                     16                     17                     18
                     BU                     AG                     AU
 Frequencies --   1414.3411              1415.7680              1478.9558
 Red. masses --      1.2656                 1.2458                 1.0438
 Frc consts  --      1.4916                 1.4713                 1.3452
 IR Inten    --      3.5337                 0.0000                14.1090

                     19                     20                     21
                     BG                     AG                     BU
 Frequencies --   1479.5123              1488.5057              1496.7418
 Red. masses --      1.0449                 1.0602                 1.0448
 Frc consts  --      1.3476                 1.3839                 1.3791
 IR Inten    --      0.0000                 0.0000                20.4542

                     22                     23                     24
                     AG                     BU                     AG
 Frequencies --   1736.4614              3014.6939              3014.9591
 Red. masses --      5.5982                 1.0369                 1.0367
 Frc consts  --      9.9456                 5.5525                 5.5524
 IR Inten    --      0.0000                71.1066                 0.0000

                     25                     26                     27
                     AU                     BG                     BU
 Frequencies --   3054.7169              3055.3581              3090.1737
 Red. masses --      1.0992                 1.0993                 1.0977
 Frc consts  --      6.0433                 6.0465                 6.1759
 IR Inten    --     42.2954                 0.0000                18.4930

                     28                     29                     30
                     AG                     AG                     BU
 Frequencies --   3091.7419              3111.7667              3121.4893
 Red. masses --      1.0970                 1.0926                 1.0877
 Frc consts  --      6.1781                 6.2332                 6.2445
 IR Inten    --      0.0000                 0.0000                70.8587

 - Thermochemistry -
 -------------------
 Temperature   298.150 Kelvin.  Pressure   1.00000 Atm.
 Atom     1 has atomic number  6 and mass  12.00000

 Molecular mass:    56.06260 amu.
 Principal axes and moments of inertia in atomic units:
                           1         2         3
     Eigenvalues --    51.40512 483.92497 513.22302
           X           -0.11956   0.99283   0.00000
           Y            0.99283   0.11956   0.00000
           Z           -0.00000  -0.00000   1.00000
 This molecule is an asymmetric top.
 Rotational symmetry number  2.
 Rotational temperatures (Kelvin)      1.68493     0.17898     0.16876
 Rotational constants (GHZ):          35.10820     3.72938     3.51649
 Zero-point vibrational energy     282260.2 (Joules/Mol)
                                   67.46181 (Kcal/Mol)
 Warning -- explicit consideration of   5 degrees of freedom as
           vibrations may cause significant error
 Vibrational temperatures:    253.35   329.87   353.59   407.10   723.97
          (Kelvin)           1099.48  1259.18  1425.50  1438.25  1539.38
                             1544.78  1544.96  1681.04  1920.44  1924.34
                             2034.92  2036.97  2127.89  2128.69  2141.63
                             2153.48  2498.38  4337.47  4337.85  4395.06
                             4395.98  4446.07  4448.33  4477.14  4491.13

 Zero-point correction=                           0.107507 (Hartree/Particle)
 Thermal correction to Energy=                    0.112993
 Thermal correction to Enthalpy=                  0.113938
 Thermal correction to Gibbs Free Energy=         0.080758
 Sum of electronic and zero-point Energies=           -157.186697
 Sum of electronic and thermal Energies=              -157.181211
 Sum of electronic and thermal Enthalpies=            -157.180266
 Sum of electronic and thermal Free Energies=         -157.213446

                     E (Thermal)             CV                S
                      KCal/Mol        Cal/Mol-Kelvin    Cal/Mol-Kelvin
 Total                   70.904             18.311             69.832
 Electronic               0.000              0.000              0.000
 Translational            0.889              2.981             37.993
 Rotational               0.889              2.981             22.683
 Vibrational             69.127             12.349              9.156
 Vibration     1          0.628              1.872              2.370
 Vibration     2          0.652              1.796              1.885
 Vibration     3          0.660              1.770              1.761
 Vibration     4          0.682              1.705              1.516
 Vibration     5          0.858              1.243              0.650

 Optimization completed.
    -- Stationary point found.
 Normal termination of Gaussian 16 at Fri Sep  8 17:50:43 2023.
