 Gaussian 16, Revision B.01,
 Gaussian 16:  ES64L-G16RevB.01 20-Dec-2017

 --------------------
 # b3lyp/gen opt freq
 --------------------

 -----------------------
 1-butene, B3LYP/pcseg-2
 -----------------------
 Symbolic Z-matrix:
 Charge =  0 Multiplicity = 1

 SCF Done:  E(RB3LYP) =  -157.289125491     A.U. after   12 cycles
 SCF Done:  E(RB3LYP) =  -157.289184163     A.U. after    8 cycles
 SCF Done:  E(RB3LYP) =  -157.289185488     A.U. after    7 cycles
 SCF Done:  E(RB3LYP) =  -157.289186186     A.U. after    7 cycles
 SCF Done:  E(RB3LYP) =  -157.289186255     A.U. after    6 cycles
 Optimization completed.
    -- Stationary point found.
 Normal termination of Gaussian 16 at Thu Feb 24 16:54:41 2022.

 ------------------------------------------------------------------
 #N Geom=AllCheck Guess=TCheck SCRF=Check GenChk RB3LYP/ChkBas Freq
 ------------------------------------------------------------------

 Structure from the checkpoint file:  "/wrk/irikura/Gau-26409.chk"
 -----------------------
 1-butene, B3LYP/pcseg-2
 -----------------------
 Charge =  0 Multiplicity = 1

                         Standard orientation:
 ---------------------------------------------------------------------
 Center     Atomic      Atomic             Coordinates (Angstroms)
 Number     Number       Type             X           Y           Z
 ---------------------------------------------------------------------
      1          6           0        1.728805   -0.241870   -0.290396
      2          6           0        0.536306    0.516706    0.305911
      3          6           0       -0.721041   -0.299706    0.329480
      4          6           0       -1.859071    0.019988   -0.274032
      5          1           0       -0.667136   -1.231594    0.887106
      6          1           0        1.538570   -0.514235   -1.329085
      7          1           0        2.633769    0.365986   -0.259309
      8          1           0        1.926486   -1.161626    0.262979
      9          1           0        0.786798    0.814467    1.329551
     10          1           0        0.362697    1.438685   -0.253232
     11          1           0       -1.960815    0.936385   -0.843511
     12          1           0       -2.730367   -0.618776   -0.220272
 ---------------------------------------------------------------------

 SCF Done:  E(RB3LYP) =  -157.289186255     A.U. after    1 cycles

 The electronic state is 1-A.
 Alpha  occ. eigenvalues --  -10.17366 -10.17317 -10.16320 -10.16143  -0.80266
 Alpha  occ. eigenvalues --   -0.73095  -0.63010  -0.55579  -0.47411  -0.44574
 Alpha  occ. eigenvalues --   -0.42872  -0.38582  -0.37714  -0.34687  -0.33790
 Alpha  occ. eigenvalues --   -0.26348
 Alpha virt. eigenvalues --    0.00073   0.02178   0.04052   0.04308   0.05585
 Alpha virt. eigenvalues --    0.08067   0.08922   0.09380   0.11007   0.13330
 Alpha virt. eigenvalues --    0.15664   0.16588   0.18408   0.20164   0.21661

 Mulliken charges:
               1
     1  C   -0.068776
     2  C    0.024332
     3  C   -0.062505
     4  C   -0.121110
     5  H    0.028153
     6  H    0.028204
     7  H    0.030953
     8  H    0.019328
     9  H    0.027478
    10  H    0.011913
    11  H    0.036028
    12  H    0.046001
 Sum of Mulliken charges =   0.00000

 Dipole moment (field-independent basis, Debye):
    X=              0.4041    Y=              0.0629    Z=              0.1046  Tot=              0.4221
 Quadrupole moment (field-independent basis, Debye-Ang):
   XX=            -27.0434   YY=            -26.7322   ZZ=            -27.7511
   XY=              0.5099   XZ=              0.8250   YZ=             -1.2474

  Exact polarizability:  64.884  -1.249  44.993   5.125  -2.204  43.614
 Approx polarizability:  83.374  -3.524  62.766  11.042  -4.559  63.417

                      1                      2                      3
                      A                      A                      A
 Frequencies --    110.1221               228.2240               317.1885
 Red. masses --      2.2465                 1.0864                 1.8006
 Frc consts  --      0.0161                 0.0333                 0.1067
 IR Inten    --      0.0873                 0.0366                 0.6084

                      4                      5                      6
                      A                      A                      A
 Frequencies --    434.6308               654.7870               798.3953
 Red. masses --      1.9896                 1.4716                 1.1800
 Frc consts  --      0.2214                 0.3717                 0.4432
 IR Inten    --      0.7641                11.4382                 3.1499

                      7                      8                      9
                      A                      A                      A
 Frequencies --    858.1877               952.1932               992.1205
 Red. masses --      1.9531                 1.3311                 1.2174
 Frc consts  --      0.8475                 0.7111                 0.7060
 IR Inten    --      2.1700                49.3008                 1.9213

                     10                     11                     12
                      A                      A                      A
 Frequencies --   1020.3043              1036.2275              1095.6856
 Red. masses --      2.0856                 1.2067                 1.6901
 Frc consts  --      1.2792                 0.7634                 1.1955
 IR Inten    --      2.7320                10.2755                 4.4358

                     13                     14                     15
                      A                      A                      A
 Frequencies --   1201.5275              1291.5273              1325.7691
 Red. masses --      1.9259                 1.1728                 1.2590
 Frc consts  --      1.6382                 1.1526                 1.3038
 IR Inten    --      0.3146                 0.1379                 1.0652

                     16                     17                     18
                      A                      A                      A
 Frequencies --   1347.2558              1410.0243              1459.0447
 Red. masses --      1.3890                 1.2179                 1.1803
 Frc consts  --      1.4854                 1.4267                 1.4804
 IR Inten    --      2.5159                 1.8216                 1.9510

                     19                     20                     21
                      A                      A                      A
 Frequencies --   1483.5597              1497.4812              1506.3679
 Red. masses --      1.0724                 1.0405                 1.0754
 Frc consts  --      1.3907                 1.3747                 1.4377
 IR Inten    --      3.9151                 6.6294                 6.4543

                     22                     23                     24
                      A                      A                      A
 Frequencies --   1704.1289              3006.0269              3028.9639
 Red. masses --      4.5397                 1.0653                 1.0346
 Frc consts  --      7.7674                 5.6718                 5.5925
 IR Inten    --     14.6439                24.4211                31.1030

                     25                     26                     27
                      A                      A                      A
 Frequencies --   3050.6818              3091.2664              3097.2386
 Red. masses --      1.0951                 1.1013                 1.1026
 Frc consts  --      6.0047                 6.2003                 6.2321
 IR Inten    --      8.5861                34.0121                32.3728

                     28                     29                     30
                      A                      A                      A
 Frequencies --   3116.2894              3131.4108              3213.1275
 Red. masses --      1.0837                 1.0651                 1.1150
 Frc consts  --      6.2009                 6.1534                 6.7823
 IR Inten    --     29.4213                 5.0300                16.9429

 - Thermochemistry -
 -------------------
 Temperature   298.150 Kelvin.  Pressure   1.00000 Atm.
 Atom     1 has atomic number  6 and mass  12.00000

 Molecular mass:    56.06260 amu.
 Principal axes and moments of inertia in atomic units:
                           1         2         3
     Eigenvalues --    78.41853 436.18071 447.00344
           X            0.99999  -0.00122   0.00411
           Y            0.00221   0.96767  -0.25222
           Z           -0.00367   0.25223   0.96766
 This molecule is an asymmetric top.
 Rotational symmetry number  1.
 Rotational temperatures (Kelvin)      1.10451     0.19857     0.19377
 Rotational constants (GHZ):          23.01422     4.13760     4.03742
 Zero-point vibrational energy     283872.4 (Joules/Mol)
                                   67.84713 (Kcal/Mol)
 Warning -- explicit consideration of   4 degrees of freedom as
           vibrations may cause significant error
 Vibrational temperatures:    158.44   328.36   456.36   625.34   942.09
          (Kelvin)           1148.71  1234.74  1369.99  1427.44  1467.99
                             1490.90  1576.45  1728.73  1858.22  1907.49
                             1938.40  2028.71  2099.24  2134.51  2154.54
                             2167.33  2451.86  4325.00  4358.00  4389.25
                             4447.64  4456.24  4483.65  4505.40  4622.97

 Zero-point correction=                           0.108121 (Hartree/Particle)
 Thermal correction to Energy=                    0.113389
 Thermal correction to Enthalpy=                  0.114333
 Thermal correction to Gibbs Free Energy=         0.080633
 Sum of electronic and zero-point Energies=           -157.181065
 Sum of electronic and thermal Energies=              -157.175797
 Sum of electronic and thermal Enthalpies=            -157.174853
 Sum of electronic and thermal Free Energies=         -157.208553

                     E (Thermal)             CV                S
                      KCal/Mol        Cal/Mol-Kelvin    Cal/Mol-Kelvin
 Total                   71.153             17.737             70.927
 Electronic               0.000              0.000              0.000
 Translational            0.889              2.981             37.993
 Rotational               0.889              2.981             24.240
 Vibrational             69.375             11.775              8.695
 Vibration     1          0.606              1.941              3.267
 Vibration     2          0.651              1.798              1.893
 Vibration     3          0.704              1.641              1.325
 Vibration     4          0.795              1.395              0.844

 Optimization completed.
    -- Stationary point found.
 Normal termination of Gaussian 16 at Thu Feb 24 16:57:57 2022.
