 Gaussian 16, Revision B.01,

 ---------------------------------------
 # b3lyp/gen opt freq CPHF(Grid=OneStep)
 ---------------------------------------

 -----------------------
 1-butene, B3LYP/pcseg-2
 -----------------------
 Symbolic Z-matrix:
 Charge =  0 Multiplicity = 1

 SCF Done:  E(RB3LYP) =  -157.289186255     A.U. after   12 cycles
 Optimization completed.
    -- Stationary point found.
 Normal termination of Gaussian 16 at Thu Sep 28 14:22:43 2023.

 ------------------------------------------------------------------
 #N Geom=AllCheck Guess=TCheck SCRF=Check GenChk RB3LYP/ChkBas Freq
 ------------------------------------------------------------------

 Structure from the checkpoint file:  "butene1.chk"
 -----------------------
 1-butene, B3LYP/pcseg-2
 -----------------------
 Charge =  0 Multiplicity = 1

 SCF Done:  E(RB3LYP) =  -157.289186255     A.U. after    1 cycles

  Exact polarizability:  64.884  -1.249  44.993   5.125  -2.204  43.613
 Approx polarizability:  83.374  -3.524  62.766  11.042  -4.559  63.417

                      1                      2                      3
                      A                      A                      A
 Frequencies --    110.1235               228.2282               317.1942
 Red. masses --      2.2465                 1.0864                 1.8006
 Frc consts  --      0.0161                 0.0333                 0.1067
 IR Inten    --      0.0872                 0.0366                 0.6084

                      4                      5                      6
                      A                      A                      A
 Frequencies --    434.6302               654.7894               798.3973
 Red. masses --      1.9896                 1.4716                 1.1800
 Frc consts  --      0.2214                 0.3717                 0.4432
 IR Inten    --      0.7640                11.4387                 3.1498

                      7                      8                      9
                      A                      A                      A
 Frequencies --    858.1884               952.1933               992.1224
 Red. masses --      1.9531                 1.3311                 1.2174
 Frc consts  --      0.8475                 0.7111                 0.7060
 IR Inten    --      2.1704                49.2974                 1.9213

                     10                     11                     12
                      A                      A                      A
 Frequencies --   1020.3043              1036.2243              1095.6859
 Red. masses --      2.0857                 1.2067                 1.6901
 Frc consts  --      1.2793                 0.7634                 1.1955
 IR Inten    --      2.7323                10.2773                 4.4362

                     13                     14                     15
                      A                      A                      A
 Frequencies --   1201.5286              1291.5314              1325.7670
 Red. masses --      1.9259                 1.1728                 1.2590
 Frc consts  --      1.6382                 1.1526                 1.3038
 IR Inten    --      0.3146                 0.1379                 1.0645

                     16                     17                     18
                      A                      A                      A
 Frequencies --   1347.2567              1410.0233              1459.0472
 Red. masses --      1.3890                 1.2179                 1.1803
 Frc consts  --      1.4854                 1.4267                 1.4804
 IR Inten    --      2.5166                 1.8219                 1.9513

                     19                     20                     21
                      A                      A                      A
 Frequencies --   1483.5608              1497.4775              1506.3686
 Red. masses --      1.0724                 1.0405                 1.0754
 Frc consts  --      1.3907                 1.3747                 1.4377
 IR Inten    --      3.9152                 6.6293                 6.4540

                     22                     23                     24
                      A                      A                      A
 Frequencies --   1704.1330              3006.0270              3028.9582
 Red. masses --      4.5397                 1.0653                 1.0346
 Frc consts  --      7.7675                 5.6718                 5.5925
 IR Inten    --     14.6388                24.4225                31.0971

                     25                     26                     27
                      A                      A                      A
 Frequencies --   3050.6904              3091.2551              3097.2396
 Red. masses --      1.0951                 1.1013                 1.1026
 Frc consts  --      6.0047                 6.2003                 6.2321
 IR Inten    --      8.5842                34.0025                32.3687

                     28                     29                     30
                      A                      A                      A
 Frequencies --   3116.2768              3131.4126              3213.1342
 Red. masses --      1.0838                 1.0651                 1.1150
 Frc consts  --      6.2009                 6.1533                 6.7823
 IR Inten    --     29.4445                 5.0325                16.9383

 - Thermochemistry -
 -------------------
 Temperature   298.150 Kelvin.  Pressure   1.00000 Atm.
 Atom     1 has atomic number  6 and mass  12.00000

 Molecular mass:    56.06260 amu.
 Principal axes and moments of inertia in atomic units:
                           1         2         3
     Eigenvalues --    78.41855 436.18075 447.00348
           X            0.99999  -0.00122   0.00411
           Y            0.00221   0.96767  -0.25222
           Z           -0.00367   0.25223   0.96766
 This molecule is an asymmetric top.
 Rotational symmetry number  1.
 Rotational temperatures (Kelvin)      1.10451     0.19857     0.19377
 Rotational constants (GHZ):          23.01421     4.13760     4.03742
 Zero-point vibrational energy     283872.5 (Joules/Mol)
                                   67.84715 (Kcal/Mol)
 Warning -- explicit consideration of   4 degrees of freedom as
           vibrations may cause significant error
 Vibrational temperatures:    158.44   328.37   456.37   625.34   942.10
          (Kelvin)           1148.72  1234.74  1369.99  1427.44  1467.99
                             1490.90  1576.45  1728.73  1858.23  1907.48
                             1938.40  2028.71  2099.24  2134.51  2154.54
                             2167.33  2451.87  4325.00  4358.00  4389.26
                             4447.63  4456.24  4483.63  4505.40  4622.98

 Zero-point correction=                           0.108121 (Hartree/Particle)
 Thermal correction to Energy=                    0.113389
 Thermal correction to Enthalpy=                  0.114333
 Thermal correction to Gibbs Free Energy=         0.080633
 Sum of electronic and zero-point Energies=           -157.181065
 Sum of electronic and thermal Energies=              -157.175797
 Sum of electronic and thermal Enthalpies=            -157.174853
 Sum of electronic and thermal Free Energies=         -157.208553

                     E (Thermal)             CV                S
                      KCal/Mol        Cal/Mol-Kelvin    Cal/Mol-Kelvin
 Total                   71.153             17.737             70.927
 Electronic               0.000              0.000              0.000
 Translational            0.889              2.981             37.993
 Rotational               0.889              2.981             24.240
 Vibrational             69.375             11.775              8.694
 Vibration     1          0.606              1.941              3.267
 Vibration     2          0.651              1.798              1.893
 Vibration     3          0.704              1.641              1.325
 Vibration     4          0.795              1.395              0.844

 Optimization completed.
    -- Stationary point found.
 Normal termination of Gaussian 16 at Thu Sep 28 14:30:57 2023.
 Gaussian 16:  ES64L-G16RevB.01 20-Dec-2017

 ---------------------------------
 # rohf/gen geom=check guess=check
 ---------------------------------

 --------------------------
 1-butene, ROHF/cc-pVTZ-F12
 --------------------------
 Structure from the checkpoint file:  "butene1.chk"
 Charge =  0 Multiplicity = 1

                         Standard orientation:
 ---------------------------------------------------------------------
 Center     Atomic      Atomic             Coordinates (Angstroms)
 Number     Number       Type             X           Y           Z
 ---------------------------------------------------------------------
      1          6           0        1.728805   -0.241870   -0.290396
      2          6           0        0.536306    0.516706    0.305911
      3          6           0       -0.721041   -0.299706    0.329480
      4          6           0       -1.859071    0.019988   -0.274032
      5          1           0       -0.667136   -1.231594    0.887106
      6          1           0        1.538570   -0.514235   -1.329085
      7          1           0        2.633769    0.365986   -0.259309
      8          1           0        1.926486   -1.161626    0.262979
      9          1           0        0.786798    0.814467    1.329551
     10          1           0        0.362697    1.438685   -0.253232
     11          1           0       -1.960815    0.936385   -0.843511
     12          1           0       -2.730367   -0.618776   -0.220272
 ---------------------------------------------------------------------

 SCF Done:  E(ROHF) =  -156.173600386     A.U. after   11 cycles

 The electronic state is 1-A.
 Alpha  occ. eigenvalues --  -11.22932 -11.22477 -11.21573 -11.21458  -1.07989
 Alpha  occ. eigenvalues --   -0.98925  -0.85659  -0.75503  -0.64252  -0.60684
 Alpha  occ. eigenvalues --   -0.58570  -0.53550  -0.51752  -0.48722  -0.47527
 Alpha  occ. eigenvalues --   -0.35982
 Alpha virt. eigenvalues --    0.05126   0.05188   0.05488   0.06175   0.08071
 Alpha virt. eigenvalues --    0.08922   0.09163   0.09498   0.10080   0.12003
 Alpha virt. eigenvalues --    0.12252   0.13450   0.14639   0.17756   0.18177

 Mulliken charges and spin densities:
               1          2
     1  C   -0.269804   0.000000
     2  C   -0.114872   0.000000
     3  C   -0.079964   0.000000
     4  C   -0.365030   0.000000
     5  H    0.151863   0.000000
     6  H    0.088209   0.000000
     7  H    0.088906   0.000000
     8  H    0.079834   0.000000
     9  H    0.076338   0.000000
    10  H    0.068492   0.000000
    11  H    0.132343   0.000000
    12  H    0.143686   0.000000
 Sum of Mulliken charges =  -0.00000   0.00000

 Dipole moment (field-independent basis, Debye):
    X=              0.4100    Y=              0.0638    Z=              0.1013  Tot=              0.4271
 Quadrupole moment (field-independent basis, Debye-Ang):
   XX=            -26.9216   YY=            -26.6616   ZZ=            -27.7888
   XY=              0.4761   XZ=              0.9580   YZ=             -1.3983

 Normal termination of Gaussian 16 at Thu Sep 28 14:33:47 2023.
