 Gaussian 16, Revision B.01,

 ---------------------------------------
 # b3lyp/gen opt freq CPHF(Grid=OneStep)
 ---------------------------------------

 -------------------------------
 2-butene (trans), B3LYP/pcseg-2
 -------------------------------
 Symbolic Z-matrix:
 Charge =  0 Multiplicity = 1

 SCF Done:  E(RB3LYP) =  -157.294204122     A.U. after   10 cycles
 Optimization completed.
    -- Stationary point found.
 Normal termination of Gaussian 16 at Wed Sep 27 17:30:53 2023.

 ------------------------------------------------------------------
 #N Geom=AllCheck Guess=TCheck SCRF=Check GenChk RB3LYP/ChkBas Freq
 ------------------------------------------------------------------

 Structure from the checkpoint file:  "butene2.chk"
 -------------------------------
 2-butene (trans), B3LYP/pcseg-2
 -------------------------------
 Charge =  0 Multiplicity = 1

 SCF Done:  E(RB3LYP) =  -157.294204122     A.U. after    1 cycles

  Exact polarizability:  46.810   2.281  69.689   0.000  -0.000  38.921
 Approx polarizability:  67.677  10.413  89.007  -0.000  -0.000  55.668

                      1                      2                      3
                     AU                     BG                     AU
 Frequencies --    176.0856               229.2701               245.7602
 Red. masses --      1.0602                 1.2570                 2.1670
 Frc consts  --      0.0194                 0.0389                 0.0771
 IR Inten    --      1.2302                 0.0000                 4.0449

                      4                      5                      6
                     BU                     AG                     BG
 Frequencies --    282.9501               503.1813               764.1794
 Red. masses --      2.3385                 2.7534                 1.2930
 Frc consts  --      0.1103                 0.4107                 0.4449
 IR Inten    --      1.1642                 0.0000                 0.0000

                      7                      8                      9
                     AG                     BU                     AU
 Frequencies --    875.1708               990.7742               999.6329
 Red. masses --      1.7489                 1.2508                 1.0545
 Frc consts  --      0.7892                 0.7234                 0.6209
 IR Inten    --      0.0000                14.1777                39.5676

                     10                     11                     12
                     AU                     BU                     BG
 Frequencies --   1069.9201              1073.6794              1073.8022
 Red. masses --      1.4428                 3.3241                 1.6307
 Frc consts  --      0.9731                 2.2578                 1.1078
 IR Inten    --      2.0065                 3.5294                 0.0000

                     13                     14                     15
                     AG                     BU                     AG
 Frequencies --   1168.3815              1334.7748              1337.4821
 Red. masses --      2.0138                 1.2805                 1.2685
 Frc consts  --      1.6197                 1.3442                 1.3370
 IR Inten    --      0.0000                 4.9731                 0.0000

                     16                     17                     18
                     BU                     AG                     AU
 Frequencies --   1414.3427              1415.7698              1478.9563
 Red. masses --      1.2656                 1.2458                 1.0438
 Frc consts  --      1.4916                 1.4713                 1.3452
 IR Inten    --      3.5328                 0.0000                14.1100

                     19                     20                     21
                     BG                     AG                     BU
 Frequencies --   1479.5127              1488.5080              1496.7434
 Red. masses --      1.0449                 1.0601                 1.0448
 Frc consts  --      1.3476                 1.3839                 1.3791
 IR Inten    --      0.0000                 0.0000                20.4555

                     22                     23                     24
                     AG                     BU                     AG
 Frequencies --   1736.4558              3014.6959              3014.9612
 Red. masses --      5.5982                 1.0369                 1.0367
 Frc consts  --      9.9454                 5.5525                 5.5524
 IR Inten    --      0.0000                71.1069                 0.0000

                     25                     26                     27
                     AU                     BG                     BU
 Frequencies --   3054.7185              3055.3598              3090.1826
 Red. masses --      1.0992                 1.0993                 1.0977
 Frc consts  --      6.0433                 6.0465                 6.1759
 IR Inten    --     42.2979                 0.0000                18.4940

                     28                     29                     30
                     AG                     AG                     BU
 Frequencies --   3091.7450              3111.7768              3121.4924
 Red. masses --      1.0970                 1.0926                 1.0877
 Frc consts  --      6.1781                 6.2332                 6.2445
 IR Inten    --      0.0000                 0.0000                70.8493

 - Thermochemistry -
 -------------------
 Temperature   298.150 Kelvin.  Pressure   1.00000 Atm.
 Atom     1 has atomic number  6 and mass  12.00000

 Molecular mass:    56.06260 amu.
 Principal axes and moments of inertia in atomic units:
                           1         2         3
     Eigenvalues --    51.40515 483.92501 513.22310
           X           -0.11956   0.99283   0.00000
           Y            0.99283   0.11956   0.00000
           Z           -0.00000   0.00000   1.00000
 This molecule is an asymmetric top.
 Rotational symmetry number  2.
 Rotational temperatures (Kelvin)      1.68493     0.17898     0.16876
 Rotational constants (GHZ):          35.10818     3.72938     3.51648
 Zero-point vibrational energy     282260.5 (Joules/Mol)
                                   67.46187 (Kcal/Mol)
 Warning -- explicit consideration of   5 degrees of freedom as
           vibrations may cause significant error
 Vibrational temperatures:    253.35   329.87   353.59   407.10   723.97
          (Kelvin)           1099.48  1259.18  1425.50  1438.25  1539.38
                             1544.79  1544.96  1681.04  1920.44  1924.34
                             2034.92  2036.98  2127.89  2128.69  2141.63
                             2153.48  2498.37  4337.48  4337.86  4395.06
                             4395.98  4446.08  4448.33  4477.15  4491.13

 Zero-point correction=                           0.107507 (Hartree/Particle)
 Thermal correction to Energy=                    0.112994
 Thermal correction to Enthalpy=                  0.113938
 Thermal correction to Gibbs Free Energy=         0.080758
 Sum of electronic and zero-point Energies=           -157.186697
 Sum of electronic and thermal Energies=              -157.181211
 Sum of electronic and thermal Enthalpies=            -157.180266
 Sum of electronic and thermal Free Energies=         -157.213446

                     E (Thermal)             CV                S
                      KCal/Mol        Cal/Mol-Kelvin    Cal/Mol-Kelvin
 Total                   70.905             18.311             69.832
 Electronic               0.000              0.000              0.000
 Translational            0.889              2.981             37.993
 Rotational               0.889              2.981             22.683
 Vibrational             69.127             12.349              9.156
 Vibration     1          0.628              1.872              2.370
 Vibration     2          0.652              1.796              1.885
 Vibration     3          0.660              1.770              1.761
 Vibration     4          0.682              1.705              1.516
 Vibration     5          0.858              1.243              0.650

 Optimization completed.
    -- Stationary point found.
 Normal termination of Gaussian 16 at Wed Sep 27 17:34:36 2023.
 Gaussian 16:  ES64L-G16RevB.01 20-Dec-2017

 ---------------------------------
 # rohf/gen geom=check guess=check
 ---------------------------------

 ----------------------------------
 2-butene (trans), ROHF/cc-pVTZ-F12
 ----------------------------------
 Structure from the checkpoint file:  "butene2.chk"
 Charge =  0 Multiplicity = 1

                         Standard orientation:
 ---------------------------------------------------------------------
 Center     Atomic      Atomic             Coordinates (Angstroms)
 Number     Number       Type             X           Y           Z
 ---------------------------------------------------------------------
      1          6           0        0.323025    0.580560    0.000000
      2          6           0       -0.323025   -0.580560    0.000000
      3          6           0       -0.323025    1.931576    0.000000
      4          6           0        0.323025   -1.931576    0.000000
      5          1           0        1.410423    0.570280    0.000000
      6          1           0       -1.410423   -0.570280    0.000000
      7          1           0       -1.410509    1.854813    0.000000
      8          1           0        1.410509   -1.854813    0.000000
      9          1           0       -0.024783    2.513242    0.876252
     10          1           0       -0.024783    2.513242   -0.876252
     11          1           0        0.024783   -2.513242    0.876252
     12          1           0        0.024783   -2.513242   -0.876252
 ---------------------------------------------------------------------

 SCF Done:  E(ROHF) =  -156.177300724     A.U. after   10 cycles

 The electronic state is 1-AG.
 Alpha  occ. eigenvalues --  -11.22135 -11.21960 -11.21590 -11.21589  -1.07743
 Alpha  occ. eigenvalues --   -0.98353  -0.87892  -0.74403  -0.60676  -0.60635
 Alpha  occ. eigenvalues --   -0.57041  -0.55342  -0.52199  -0.50984  -0.48030
 Alpha  occ. eigenvalues --   -0.34331
 Alpha virt. eigenvalues --    0.04760   0.05249   0.05781   0.07372   0.07402
 Alpha virt. eigenvalues --    0.08755   0.09134   0.10194   0.11380   0.11395
 Alpha virt. eigenvalues --    0.12332   0.13358   0.16918   0.17607   0.18399

 Mulliken charges and spin densities:
               1          2
     1  C   -0.112051   0.000000
     2  C   -0.112051   0.000000
     3  C   -0.275385   0.000000
     4  C   -0.275385   0.000000
     5  H    0.144724   0.000000
     6  H    0.144724   0.000000
     7  H    0.085506   0.000000
     8  H    0.085506   0.000000
     9  H    0.078603   0.000000
    10  H    0.078603   0.000000
    11  H    0.078603   0.000000
    12  H    0.078603   0.000000
 Sum of Mulliken charges =  -0.00000   0.00000

 Dipole moment (field-independent basis, Debye):
    X=             -0.0000    Y=              0.0000    Z=             -0.0000  Tot=              0.0000
 Quadrupole moment (field-independent basis, Debye-Ang):
   XX=            -25.8277   YY=            -25.7217   ZZ=            -28.5114
   XY=              0.4335   XZ=              0.0000   YZ=             -0.0000

 Normal termination of Gaussian 16 at Wed Sep 27 17:35:36 2023.
