 Gaussian 16, Revision B.01,
 Gaussian 16:  ES64L-G16RevB.01 20-Dec-2017

 --------------------
 # b3lyp/gen opt freq
 --------------------

 -----------------------
 1-butyne, B3LYP/pcseg-2
 -----------------------
 Symbolic Z-matrix:
 Charge =  0 Multiplicity = 1

 SCF Done:  E(RB3LYP) =  -156.035826671     A.U. after   13 cycles
 SCF Done:  E(RB3LYP) =  -156.035883990     A.U. after    9 cycles
 SCF Done:  E(RB3LYP) =  -156.035200146     A.U. after   11 cycles
 SCF Done:  E(RB3LYP) =  -156.035902433     A.U. after    8 cycles
 SCF Done:  E(RB3LYP) =  -156.035899522     A.U. after    8 cycles
 SCF Done:  E(RB3LYP) =  -156.035902980     A.U. after    8 cycles
 Optimization completed.
    -- Stationary point found.
 Normal termination of Gaussian 16 at Thu Jun 16 08:10:26 2022.

 ------------------------------------------------------------------
 #N Geom=AllCheck Guess=TCheck SCRF=Check GenChk RB3LYP/ChkBas Freq
 ------------------------------------------------------------------

 Structure from the checkpoint file:  "/wrk/irikura/Gau-12982.chk"
 -----------------------
 1-butyne, B3LYP/pcseg-2
 -----------------------
 Charge =  0 Multiplicity = 1

                         Standard orientation:
 ---------------------------------------------------------------------
 Center     Atomic      Atomic             Coordinates (Angstroms)
 Number     Number       Type             X           Y           Z
 ---------------------------------------------------------------------
      1          6           0        1.329245   -1.459246    0.000000
      2          6           0        0.738582   -0.414939    0.000000
      3          6           0        0.000000    0.842721    0.000000
      4          6           0       -1.523764    0.650362    0.000000
      5          1           0        1.856402   -2.380188    0.000000
      6          1           0        0.297710    1.428030    0.873810
      7          1           0        0.297710    1.428030   -0.873810
      8          1           0       -2.026421    1.617643    0.000000
      9          1           0       -1.844891    0.096549   -0.881287
     10          1           0       -1.844891    0.096549    0.881287
 ---------------------------------------------------------------------

 SCF Done:  E(RB3LYP) =  -156.035902980     A.U. after    1 cycles

 The electronic state is 1-A'.
 Alpha  occ. eigenvalues --  -10.19931 -10.17252 -10.17231 -10.16014  -0.80472
 Alpha  occ. eigenvalues --   -0.73063  -0.64785  -0.53095  -0.47556  -0.46613
 Alpha  occ. eigenvalues --   -0.40764  -0.37991  -0.37204  -0.27552  -0.27423
 Alpha virt. eigenvalues --    0.00847   0.03266   0.03879   0.04928   0.04995
 Alpha virt. eigenvalues --    0.06595   0.07782   0.10340   0.12645   0.13527
 Alpha virt. eigenvalues --    0.15538   0.17731   0.18816   0.20260   0.20963

 Mulliken charges:
               1
     1  C   -0.330168
     2  C    0.181763
     3  C   -0.007807
     4  C   -0.055216
     5  H    0.034467
     6  H    0.043479
     7  H    0.043479
     8  H    0.026703
     9  H    0.031650
    10  H    0.031650
 Sum of Mulliken charges =  -0.00000

 Dipole moment (field-independent basis, Debye):
    X=             -0.5044    Y=              0.6817    Z=              0.0000  Tot=              0.8480
 Quadrupole moment (field-independent basis, Debye-Ang):
   XX=            -25.8204   YY=            -22.6197   ZZ=            -26.3189
   XY=             -1.9032   XZ=              0.0000   YZ=             -0.0000

  Exact polarizability:  48.289 -12.467  55.028   0.000  -0.000  35.316
 Approx polarizability:  61.882 -19.627  83.959   0.000  -0.000  49.169

                      1                      2                      3
                     A'                     A"                     A"
 Frequencies --    204.0784               219.3977               363.4045
 Red. masses --      3.0466                 1.1553                 2.3784
 Frc consts  --      0.0748                 0.0328                 0.1851
 IR Inten    --      1.6107                 0.6730                 8.4140

                      4                      5                      6
                     A'                     A"                     A'
 Frequencies --    523.2672               669.8660               677.1196
 Red. masses --      3.7899                 1.2583                 1.2759
 Frc consts  --      0.6114                 0.3327                 0.3447
 IR Inten    --      9.1666                52.7933                49.7258

                      7                      8                      9
                     A"                     A'                     A'
 Frequencies --    790.6025               846.5273              1019.3424
 Red. masses --      1.1790                 2.7434                 2.8885
 Frc consts  --      0.4342                 1.1583                 1.7683
 IR Inten    --      1.1239                 0.0255                 0.3256

                     10                     11                     12
                     A'                     A"                     A"
 Frequencies --   1089.7573              1110.1086              1290.0162
 Red. masses --      1.6838                 1.4848                 1.1429
 Frc consts  --      1.1781                 1.0781                 1.1206
 IR Inten    --      2.8118                 0.6416                 0.0014

                     13                     14                     15
                     A'                     A'                     A'
 Frequencies --   1351.3809              1413.0773              1478.1900
 Red. masses --      1.4389                 1.2071                 1.0725
 Frc consts  --      1.5482                 1.4202                 1.3807
 IR Inten    --      8.7127                 1.4148                 3.3417

                     16                     17                     18
                     A"                     A'                     A'
 Frequencies --   1495.4976              1505.1833              2217.4956
 Red. masses --      1.0388                 1.0557                 5.9864
 Frc consts  --      1.3689                 1.4092                17.3436
 IR Inten    --      6.9743                 4.2528                 9.4915

                     19                     20                     21
                     A'                     A'                     A"
 Frequencies --   3024.4607              3041.6229              3049.1007
 Red. masses --      1.0587                 1.0342                 1.1019
 Frc consts  --      5.7060                 5.6370                 6.0359
 IR Inten    --     16.4742                27.8559                 5.3966

                     22                     23                     24
                     A'                     A"                     A'
 Frequencies --   3108.2051              3114.4324              3472.5818
 Red. masses --      1.1023                 1.1034                 1.1596
 Frc consts  --      6.2741                 6.3057                 8.2385
 IR Inten    --     27.3996                24.1429                64.3744

 - Thermochemistry -
 -------------------
 Temperature   298.150 Kelvin.  Pressure   1.00000 Atm.
 Atom     1 has atomic number  6 and mass  12.00000

 Molecular mass:    54.04695 amu.
 Principal axes and moments of inertia in atomic units:
                           1         2         3
     Eigenvalues --    65.12367 398.66626 441.61699
           X            0.76692   0.64174   0.00000
           Y           -0.64174   0.76692   0.00000
           Z           -0.00000   0.00000   1.00000
 This molecule is an asymmetric top.
 Rotational symmetry number  1.
 Rotational temperatures (Kelvin)      1.32999     0.21726     0.19613
 Rotational constants (GHZ):          27.71252     4.52695     4.08667
 Zero-point vibrational energy     221756.0 (Joules/Mol)
                                   53.00097 (Kcal/Mol)
 Warning -- explicit consideration of   4 degrees of freedom as
           vibrations may cause significant error
 Vibrational temperatures:    293.62   315.66   522.86   752.86   963.79
          (Kelvin)            974.22  1137.50  1217.96  1466.61  1567.92
                             1597.20  1856.05  1944.34  2033.10  2126.79
                             2151.69  2165.62  3190.48  4351.52  4376.22
                             4386.98  4472.01  4480.97  4996.27

 Zero-point correction=                           0.084462 (Hartree/Particle)
 Thermal correction to Energy=                    0.089457
 Thermal correction to Enthalpy=                  0.090401
 Thermal correction to Gibbs Free Energy=         0.057622
 Sum of electronic and zero-point Energies=           -155.951441
 Sum of electronic and thermal Energies=              -155.946446
 Sum of electronic and thermal Enthalpies=            -155.945502
 Sum of electronic and thermal Free Energies=         -155.978281

                     E (Thermal)             CV                S
                      KCal/Mol        Cal/Mol-Kelvin    Cal/Mol-Kelvin
 Total                   56.135             16.891             68.989
 Electronic               0.000              0.000              0.000
 Translational            0.889              2.981             37.884
 Rotational               0.889              2.981             23.954
 Vibrational             54.357             10.929              7.152
 Vibration     1          0.640              1.834              2.096
 Vibration     2          0.647              1.812              1.964
 Vibration     3          0.737              1.548              1.108
 Vibration     4          0.878              1.198              0.602

 Optimization completed.
    -- Stationary point found.
 Normal termination of Gaussian 16 at Thu Jun 16 08:11:34 2022.
