 Gaussian 16, Revision B.01,
 Gaussian 16:  ES64L-G16RevB.01 20-Dec-2017

 ---------------------------------------
 # b3lyp/gen opt freq CPHF(Grid=OneStep)
 ---------------------------------------

 ----------------------------
 butyrolactone, B3LYP/pcseg-2
 ----------------------------
 Symbolic Z-matrix:
 Charge =  0 Multiplicity = 1

 SCF Done:  E(RB3LYP) =  -306.620373951     A.U. after   13 cycles
 SCF Done:  E(RB3LYP) =  -306.620630561     A.U. after   10 cycles
 SCF Done:  E(RB3LYP) =  -306.620495521     A.U. after   10 cycles
 SCF Done:  E(RB3LYP) =  -306.620648361     A.U. after    9 cycles
 SCF Done:  E(RB3LYP) =  -306.620649498     A.U. after    7 cycles
 Optimization completed.
    -- Stationary point found.
 Normal termination of Gaussian 16 at Fri Sep 15 19:25:10 2023.

 ------------------------------------------------------------------
 #N Geom=AllCheck Guess=TCheck SCRF=Check GenChk RB3LYP/ChkBas Freq
 ------------------------------------------------------------------

 Structure from the checkpoint file:  "/wrk/irikura/Gau-38454.chk"
 ----------------------------
 butyrolactone, B3LYP/pcseg-2
 ----------------------------
 Charge =  0 Multiplicity = 1

                         Standard orientation:
 ---------------------------------------------------------------------
 Center     Atomic      Atomic             Coordinates (Angstroms)
 Number     Number       Type             X           Y           Z
 ---------------------------------------------------------------------
      1          8           0        2.081742   -0.030531   -0.067584
      2          6           0        0.889269   -0.002419    0.002676
      3          6           0       -0.022718    1.205804    0.160182
      4          8           0        0.128181   -1.130677   -0.044713
      5          6           0       -1.405259    0.669204   -0.208561
      6          6           0       -1.270023   -0.821053    0.123778
      7          1           0        0.333444    2.027205   -0.455689
      8          1           0        0.032305    1.527572    1.202802
      9          1           0       -1.592727    0.800420   -1.274342
     10          1           0       -2.220615    1.139151    0.337352
     11          1           0       -1.546036   -1.039470    1.157276
     12          1           0       -1.833362   -1.474431   -0.537471
 ---------------------------------------------------------------------

 SCF Done:  E(RB3LYP) =  -306.620649498     A.U. after    1 cycles

 The electronic state is 1-A.
 Alpha  occ. eigenvalues --  -19.17097 -19.11080 -10.30381 -10.24644 -10.20036
 Alpha  occ. eigenvalues --  -10.20003  -1.10925  -1.03189  -0.81824  -0.74236
 Alpha  occ. eigenvalues --   -0.64003  -0.57095  -0.53126  -0.51185  -0.46547
 Alpha  occ. eigenvalues --   -0.45037  -0.43355  -0.41733  -0.38866  -0.36836
 Alpha  occ. eigenvalues --   -0.36139  -0.30899  -0.28049
 Alpha virt. eigenvalues --   -0.00531   0.00089   0.02909   0.03124   0.04499
 Alpha virt. eigenvalues --    0.07997   0.08250   0.08767   0.11989   0.13763
 Alpha virt. eigenvalues --    0.14532   0.14896   0.15986   0.17413   0.20881

 Mulliken charges:
               1
     1  O   -0.394274
     2  C    0.427157
     3  C   -0.073775
     4  O   -0.368481
     5  C   -0.094196
     6  C    0.188639
     7  H    0.071181
     8  H    0.057888
     9  H    0.049824
    10  H    0.051325
    11  H    0.036617
    12  H    0.048094
 Sum of Mulliken charges =  -0.00000

 Dipole moment (field-independent basis, Debye):
    X=             -4.5106    Y=              1.5567    Z=              0.3918  Tot=              4.7877
 Quadrupole moment (field-independent basis, Debye-Ang):
   XX=            -41.2977   YY=            -35.6487   ZZ=            -33.7997
   XY=              1.8041   XZ=              0.2650   YZ=             -0.1125

  Exact polarizability:  61.081   2.417  50.521  -0.529   0.143  41.077
 Approx polarizability:  85.202   4.168  69.065  -1.619   0.638  60.280

                      1                      2                      3
                      A                      A                      A
 Frequencies --    147.6623               201.8341               489.7897
 Red. masses --      2.5958                 2.1814                 6.1595
 Frc consts  --      0.0333                 0.0524                 0.8706
 IR Inten    --      1.1705                 1.9154                 3.0359

                      4                      5                      6
                      A                      A                      A
 Frequencies --    538.3579               642.3068               683.5992
 Red. masses --      2.1491                 2.7653                 5.8962
 Frc consts  --      0.3670                 0.6722                 1.6234
 IR Inten    --      3.8866                 5.3968                 4.1635

                      7                      8                      9
                      A                      A                      A
 Frequencies --    802.5976               874.3492               895.0411
 Red. masses --      2.8674                 2.3776                 1.5492
 Frc consts  --      1.0883                 1.0709                 0.7312
 IR Inten    --      4.4477                22.1065                 8.5178

                     10                     11                     12
                      A                      A                      A
 Frequencies --    933.6965              1008.1806              1053.8849
 Red. masses --      2.5056                 2.0443                 5.6081
 Frc consts  --      1.2870                 1.2243                 3.6699
 IR Inten    --      5.3648                21.8665                77.7953

                     13                     14                     15
                      A                      A                      A
 Frequencies --   1099.6771              1161.4461              1200.3547
 Red. masses --      1.7566                 4.3739                 1.3296
 Frc consts  --      1.2516                 3.4763                 1.1287
 IR Inten    --      9.4909               222.9740                 2.8624

                     16                     17                     18
                      A                      A                      A
 Frequencies --   1220.3685              1261.6615              1307.4519
 Red. masses --      1.3938                 1.1781                 1.4008
 Frc consts  --      1.2230                 1.1049                 1.4109
 IR Inten    --      8.8423                 7.5418                 5.5291

                     19                     20                     21
                      A                      A                      A
 Frequencies --   1345.1003              1398.1977              1468.2425
 Red. masses --      1.3752                 1.4198                 1.0818
 Frc consts  --      1.4660                 1.6353                 1.3740
 IR Inten    --      0.7650                16.3891                 8.2377

                     22                     23                     24
                      A                      A                      A
 Frequencies --   1503.2188              1528.8052              1848.3710
 Red. masses --      1.0953                 1.0907                12.7648
 Frc consts  --      1.4583                 1.5019                25.6947
 IR Inten    --      6.1288                 0.7986               435.6578

                     25                     26                     27
                      A                      A                      A
 Frequencies --   3041.5525              3049.9615              3060.9292
 Red. masses --      1.0687                 1.0700                 1.0623
 Frc consts  --      5.8248                 5.8645                 5.8639
 IR Inten    --     36.8770                 5.7064                21.3392

                     28                     29                     30
                      A                      A                      A
 Frequencies --   3108.0411              3119.1535              3128.0698
 Red. masses --      1.0979                 1.1015                 1.0977
 Frc consts  --      6.2487                 6.3143                 6.3281
 IR Inten    --     15.2431                22.3307                 8.8952

 - Thermochemistry -
 -------------------
 Temperature   298.150 Kelvin.  Pressure   1.00000 Atm.
 Atom     1 has atomic number  8 and mass  15.99491

 Molecular mass:    86.03678 amu.
 Principal axes and moments of inertia in atomic units:
                           1         2         3
     Eigenvalues --   246.98216 504.31117 707.18878
           X            0.99990   0.01373   0.00252
           Y           -0.01372   0.99990  -0.00201
           Z           -0.00255   0.00198   0.99999
 This molecule is an asymmetric top.
 Rotational symmetry number  1.
 Rotational temperatures (Kelvin)      0.35069     0.17175     0.12248
 Rotational constants (GHZ):           7.30717     3.57863     2.55199
 Zero-point vibrational energy     257926.3 (Joules/Mol)
                                   61.64585 (Kcal/Mol)
 Warning -- explicit consideration of   4 degrees of freedom as
           vibrations may cause significant error
 Vibrational temperatures:    212.45   290.39   704.70   774.58   924.14
          (Kelvin)            983.55  1154.76  1257.99  1287.76  1343.38
                             1450.55  1516.31  1582.19  1671.06  1727.04
                             1755.84  1815.25  1881.13  1935.30  2011.69
                             2112.47  2162.80  2199.61  2659.39  4376.12
                             4388.21  4403.99  4471.78  4487.77  4500.59

 Zero-point correction=                           0.098239 (Hartree/Particle)
 Thermal correction to Energy=                    0.103402
 Thermal correction to Enthalpy=                  0.104346
 Thermal correction to Gibbs Free Energy=         0.069592
 Sum of electronic and zero-point Energies=           -306.522411
 Sum of electronic and thermal Energies=              -306.517248
 Sum of electronic and thermal Enthalpies=            -306.516303
 Sum of electronic and thermal Free Energies=         -306.551058

                     E (Thermal)             CV                S
                      KCal/Mol        Cal/Mol-Kelvin    Cal/Mol-Kelvin
 Total                   64.886             18.484             73.147
 Electronic               0.000              0.000              0.000
 Translational            0.889              2.981             39.270
 Rotational               0.889              2.981             25.980
 Vibrational             63.108             12.522              7.898
 Vibration     1          0.617              1.905              2.702
 Vibration     2          0.639              1.837              2.116
 Vibration     3          0.846              1.273              0.684
 Vibration     4          0.893              1.165              0.569

                           ! Non-Optimized Parameters !
 Normal termination of Gaussian 16 at Fri Sep 15 19:32:13 2023.
