 Gaussian 16, Revision B.01,

 ---------------------------------------
 # b3lyp/gen opt freq CPHF(Grid=OneStep)
 ---------------------------------------

 -----------------------
 1-butyne, B3LYP/pcseg-2
 -----------------------
 Symbolic Z-matrix:
 Charge =  0 Multiplicity = 1

 SCF Done:  E(RB3LYP) =  -156.035902980     A.U. after   13 cycles
 Optimization completed.
    -- Stationary point found.
 Normal termination of Gaussian 16 at Thu Sep 28 13:57:02 2023.

 ------------------------------------------------------------------
 #N Geom=AllCheck Guess=TCheck SCRF=Check GenChk RB3LYP/ChkBas Freq
 ------------------------------------------------------------------

 Structure from the checkpoint file:  "butyne1.chk"
 -----------------------
 1-butyne, B3LYP/pcseg-2
 -----------------------
 Charge =  0 Multiplicity = 1

 SCF Done:  E(RB3LYP) =  -156.035902980     A.U. after    1 cycles

  Exact polarizability:  48.289 -12.467  55.028   0.000  -0.000  35.316
 Approx polarizability:  61.882 -19.627  83.959   0.000  -0.000  49.169

                      1                      2                      3
                     A'                     A"                     A"
 Frequencies --    204.0778               219.3982               363.4034
 Red. masses --      3.0467                 1.1553                 2.3784
 Frc consts  --      0.0748                 0.0328                 0.1851
 IR Inten    --      1.6108                 0.6730                 8.4142

                      4                      5                      6
                     A'                     A"                     A'
 Frequencies --    523.2651               669.8683               677.1217
 Red. masses --      3.7899                 1.2583                 1.2758
 Frc consts  --      0.6114                 0.3327                 0.3447
 IR Inten    --      9.1666                52.7948                49.7270

                      7                      8                      9
                     A"                     A'                     A'
 Frequencies --    790.6007               846.5260              1019.3410
 Red. masses --      1.1790                 2.7434                 2.8885
 Frc consts  --      0.4342                 1.1583                 1.7683
 IR Inten    --      1.1239                 0.0256                 0.3255

                     10                     11                     12
                     A'                     A"                     A"
 Frequencies --   1089.7568              1110.1082              1290.0158
 Red. masses --      1.6838                 1.4848                 1.1429
 Frc consts  --      1.1781                 1.0781                 1.1206
 IR Inten    --      2.8116                 0.6416                 0.0014

                     13                     14                     15
                     A'                     A'                     A'
 Frequencies --   1351.3807              1413.0786              1478.1901
 Red. masses --      1.4389                 1.2071                 1.0725
 Frc consts  --      1.5482                 1.4202                 1.3807
 IR Inten    --      8.7129                 1.4147                 3.3416

                     16                     17                     18
                     A"                     A'                     A'
 Frequencies --   1495.5008              1505.1855              2217.4982
 Red. masses --      1.0388                 1.0557                 5.9863
 Frc consts  --      1.3689                 1.4092                17.3436
 IR Inten    --      6.9742                 4.2525                 9.4946

                     19                     20                     21
                     A'                     A'                     A"
 Frequencies --   3024.4670              3041.6255              3049.1057
 Red. masses --      1.0587                 1.0342                 1.1019
 Frc consts  --      5.7060                 5.6370                 6.0359
 IR Inten    --     16.4741                27.8556                 5.3960

                     22                     23                     24
                     A'                     A"                     A'
 Frequencies --   3108.2062              3114.4344              3472.5800
 Red. masses --      1.1023                 1.1034                 1.1596
 Frc consts  --      6.2741                 6.3057                 8.2385
 IR Inten    --     27.3994                24.1407                64.3773

 - Thermochemistry -
 -------------------
 Temperature   298.150 Kelvin.  Pressure   1.00000 Atm.
 Atom     1 has atomic number  6 and mass  12.00000

 Molecular mass:    54.04695 amu.
 Principal axes and moments of inertia in atomic units:
                           1         2         3
     Eigenvalues --    65.12367 398.66629 441.61703
           X            0.76692   0.64174   0.00000
           Y           -0.64174   0.76692   0.00000
           Z           -0.00000  -0.00000   1.00000
 This molecule is an asymmetric top.
 Rotational symmetry number  1.
 Rotational temperatures (Kelvin)      1.32999     0.21726     0.19613
 Rotational constants (GHZ):          27.71252     4.52695     4.08667
 Zero-point vibrational energy     221756.2 (Joules/Mol)
                                   53.00100 (Kcal/Mol)
 Warning -- explicit consideration of   4 degrees of freedom as
           vibrations may cause significant error
 Vibrational temperatures:    293.62   315.67   522.86   752.86   963.79
          (Kelvin)            974.23  1137.50  1217.96  1466.60  1567.92
                             1597.20  1856.05  1944.34  2033.10  2126.79
                             2151.69  2165.63  3190.49  4351.53  4376.22
                             4386.98  4472.02  4480.98  4996.27

 Zero-point correction=                           0.084462 (Hartree/Particle)
 Thermal correction to Energy=                    0.089457
 Thermal correction to Enthalpy=                  0.090401
 Thermal correction to Gibbs Free Energy=         0.057622
 Sum of electronic and zero-point Energies=           -155.951441
 Sum of electronic and thermal Energies=              -155.946446
 Sum of electronic and thermal Enthalpies=            -155.945502
 Sum of electronic and thermal Free Energies=         -155.978281

                     E (Thermal)             CV                S
                      KCal/Mol        Cal/Mol-Kelvin    Cal/Mol-Kelvin
 Total                   56.135             16.891             68.989
 Electronic               0.000              0.000              0.000
 Translational            0.889              2.981             37.884
 Rotational               0.889              2.981             23.954
 Vibrational             54.357             10.929              7.152
 Vibration     1          0.640              1.834              2.096
 Vibration     2          0.647              1.812              1.964
 Vibration     3          0.737              1.548              1.108
 Vibration     4          0.878              1.198              0.602

 Optimization completed.
    -- Stationary point found.
 Normal termination of Gaussian 16 at Thu Sep 28 14:01:25 2023.
 Gaussian 16:  ES64L-G16RevB.01 20-Dec-2017

 ---------------------------------
 # rohf/gen geom=check guess=check
 ---------------------------------

 --------------------------
 1-butyne, ROHF/cc-pVTZ-F12
 --------------------------
 Structure from the checkpoint file:  "butyne1.chk"
 Charge =  0 Multiplicity = 1

                         Standard orientation:
 ---------------------------------------------------------------------
 Center     Atomic      Atomic             Coordinates (Angstroms)
 Number     Number       Type             X           Y           Z
 ---------------------------------------------------------------------
      1          6           0        1.329245   -1.459246    0.000000
      2          6           0        0.738582   -0.414939    0.000000
      3          6           0        0.000000    0.842721    0.000000
      4          6           0       -1.523764    0.650362    0.000000
      5          1           0        1.856402   -2.380188    0.000000
      6          1           0        0.297710    1.428030    0.873810
      7          1           0        0.297710    1.428030   -0.873810
      8          1           0       -2.026421    1.617643    0.000000
      9          1           0       -1.844891    0.096549   -0.881287
     10          1           0       -1.844891    0.096549    0.881287
 ---------------------------------------------------------------------

 SCF Done:  E(ROHF) =  -154.965815698     A.U. after   11 cycles

 The electronic state is 1-A'.
 Alpha  occ. eigenvalues --  -11.25188 -11.22969 -11.22456 -11.21579  -1.08013
 Alpha  occ. eigenvalues --   -0.99429  -0.87624  -0.71656  -0.64217  -0.62812
 Alpha  occ. eigenvalues --   -0.55208  -0.52516  -0.51537  -0.38402  -0.38338
 Alpha virt. eigenvalues --    0.04969   0.05291   0.05322   0.07059   0.07992
 Alpha virt. eigenvalues --    0.08673   0.09352   0.10111   0.10758   0.11769
 Alpha virt. eigenvalues --    0.12421   0.13447   0.16710   0.17426   0.19020

 Mulliken charges and spin densities:
               1          2
     1  C   -0.308763  -0.000000
     2  C    0.022323  -0.000000
     3  C   -0.163918  -0.000000
     4  C   -0.254622  -0.000000
     5  H    0.224669  -0.000000
     6  H    0.099861  -0.000000
     7  H    0.099861  -0.000000
     8  H    0.094847  -0.000000
     9  H    0.092871  -0.000000
    10  H    0.092871  -0.000000
 Sum of Mulliken charges =  -0.00000  -0.00000

 Dipole moment (field-independent basis, Debye):
    X=             -0.5071    Y=              0.6515    Z=              0.0000  Tot=              0.8256
 Quadrupole moment (field-independent basis, Debye-Ang):
   XX=            -25.8097   YY=            -22.3038   ZZ=            -26.4754
   XY=             -2.1829   XZ=              0.0000   YZ=              0.0000

 Normal termination of Gaussian 16 at Thu Sep 28 14:02:47 2023.
