 Gaussian 16, Revision B.01,

 ---------------------------------------
 # b3lyp/gen opt freq CPHF(Grid=OneStep)
 ---------------------------------------

 ----------------------------
 butyrolactone, B3LYP/pcseg-2
 ----------------------------
 Symbolic Z-matrix:
 Charge =  0 Multiplicity = 1

 SCF Done:  E(RB3LYP) =  -306.620649498     A.U. after   13 cycles
 Optimization completed.
    -- Stationary point found.
 Normal termination of Gaussian 16 at Fri Sep 29 19:52:18 2023.

 ------------------------------------------------------------------
 #N Geom=AllCheck Guess=TCheck SCRF=Check GenChk RB3LYP/ChkBas Freq
 ------------------------------------------------------------------

 Structure from the checkpoint file:  "butyrolactone.chk"
 ----------------------------
 butyrolactone, B3LYP/pcseg-2
 ----------------------------
 Charge =  0 Multiplicity = 1

 SCF Done:  E(RB3LYP) =  -306.620649498     A.U. after    1 cycles

  Exact polarizability:  61.081   2.417  50.521  -0.529   0.143  41.077
 Approx polarizability:  85.202   4.168  69.065  -1.619   0.638  60.280

                      1                      2                      3
                      A                      A                      A
 Frequencies --    147.6624               201.8365               489.7903
 Red. masses --      2.5958                 2.1814                 6.1595
 Frc consts  --      0.0333                 0.0524                 0.8706
 IR Inten    --      1.1706                 1.9153                 3.0359

                      4                      5                      6
                      A                      A                      A
 Frequencies --    538.3574               642.3073               683.5993
 Red. masses --      2.1491                 2.7653                 5.8962
 Frc consts  --      0.3670                 0.6722                 1.6234
 IR Inten    --      3.8866                 5.3969                 4.1636

                      7                      8                      9
                      A                      A                      A
 Frequencies --    802.5980               874.3498               895.0419
 Red. masses --      2.8674                 2.3776                 1.5492
 Frc consts  --      1.0883                 1.0709                 0.7312
 IR Inten    --      4.4476                22.1053                 8.5183

                     10                     11                     12
                      A                      A                      A
 Frequencies --    933.6965              1008.1808              1053.8844
 Red. masses --      2.5056                 2.0444                 5.6081
 Frc consts  --      1.2870                 1.2243                 3.6699
 IR Inten    --      5.3647                21.8668                77.7947

                     13                     14                     15
                      A                      A                      A
 Frequencies --   1099.6776              1161.4483              1200.3552
 Red. masses --      1.7566                 4.3739                 1.3296
 Frc consts  --      1.2516                 3.4763                 1.1287
 IR Inten    --      9.4907               222.9750                 2.8623

                     16                     17                     18
                      A                      A                      A
 Frequencies --   1220.3690              1261.6621              1307.4519
 Red. masses --      1.3938                 1.1781                 1.4008
 Frc consts  --      1.2230                 1.1049                 1.4109
 IR Inten    --      8.8422                 7.5419                 5.5291

                     19                     20                     21
                      A                      A                      A
 Frequencies --   1345.1011              1398.1986              1468.2433
 Red. masses --      1.3752                 1.4198                 1.0818
 Frc consts  --      1.4660                 1.6353                 1.3740
 IR Inten    --      0.7650                16.3895                 8.2377

                     22                     23                     24
                      A                      A                      A
 Frequencies --   1503.2195              1528.8057              1848.3685
 Red. masses --      1.0953                 1.0907                12.7648
 Frc consts  --      1.4583                 1.5019                25.6946
 IR Inten    --      6.1288                 0.7986               435.6584

                     25                     26                     27
                      A                      A                      A
 Frequencies --   3041.5488              3049.9653              3060.9271
 Red. masses --      1.0687                 1.0700                 1.0623
 Frc consts  --      5.8248                 5.8645                 5.8639
 IR Inten    --     36.8779                 5.7048                21.3402

                     28                     29                     30
                      A                      A                      A
 Frequencies --   3108.0386              3119.1502              3128.0705
 Red. masses --      1.0979                 1.1015                 1.0977
 Frc consts  --      6.2487                 6.3142                 6.3281
 IR Inten    --     15.2432                22.3328                 8.8931

 - Thermochemistry -
 -------------------
 Temperature   298.150 Kelvin.  Pressure   1.00000 Atm.
 Atom     1 has atomic number  8 and mass  15.99491

 Molecular mass:    86.03678 amu.
 Principal axes and moments of inertia in atomic units:
                           1         2         3
     Eigenvalues --   246.98210 504.31126 707.18882
           X            0.99990   0.01373   0.00252
           Y           -0.01372   0.99990  -0.00201
           Z           -0.00255   0.00198   0.99999
 This molecule is an asymmetric top.
 Rotational symmetry number  1.
 Rotational temperatures (Kelvin)      0.35069     0.17175     0.12248
 Rotational constants (GHZ):           7.30717     3.57863     2.55199
 Zero-point vibrational energy     257926.3 (Joules/Mol)
                                   61.64586 (Kcal/Mol)
 Warning -- explicit consideration of   4 degrees of freedom as
           vibrations may cause significant error
 Vibrational temperatures:    212.45   290.40   704.70   774.58   924.14
          (Kelvin)            983.55  1154.76  1257.99  1287.77  1343.38
                             1450.55  1516.30  1582.19  1671.07  1727.04
                             1755.84  1815.25  1881.13  1935.30  2011.70
                             2112.47  2162.80  2199.61  2659.39  4376.11
                             4388.22  4403.99  4471.77  4487.76  4500.60

 Zero-point correction=                           0.098239 (Hartree/Particle)
 Thermal correction to Energy=                    0.103402
 Thermal correction to Enthalpy=                  0.104346
 Thermal correction to Gibbs Free Energy=         0.069592
 Sum of electronic and zero-point Energies=           -306.522411
 Sum of electronic and thermal Energies=              -306.517248
 Sum of electronic and thermal Enthalpies=            -306.516303
 Sum of electronic and thermal Free Energies=         -306.551058

                     E (Thermal)             CV                S
                      KCal/Mol        Cal/Mol-Kelvin    Cal/Mol-Kelvin
 Total                   64.886             18.484             73.147
 Electronic               0.000              0.000              0.000
 Translational            0.889              2.981             39.270
 Rotational               0.889              2.981             25.980
 Vibrational             63.108             12.522              7.897
 Vibration     1          0.617              1.905              2.702
 Vibration     2          0.639              1.837              2.116
 Vibration     3          0.846              1.273              0.684
 Vibration     4          0.893              1.165              0.569

                           ! Non-Optimized Parameters !
 Normal termination of Gaussian 16 at Fri Sep 29 20:06:06 2023.
 Gaussian 16:  ES64L-G16RevB.01 20-Dec-2017

 ---------------------------------
 # rohf/gen geom=check guess=check
 ---------------------------------

 -------------------------------
 butyrolactone, ROHF/cc-pVTZ-F12
 -------------------------------
 Structure from the checkpoint file:  "butyrolactone.chk"
 Charge =  0 Multiplicity = 1

                         Standard orientation:
 ---------------------------------------------------------------------
 Center     Atomic      Atomic             Coordinates (Angstroms)
 Number     Number       Type             X           Y           Z
 ---------------------------------------------------------------------
      1          8           0        2.081742   -0.030531   -0.067584
      2          6           0        0.889269   -0.002419    0.002676
      3          6           0       -0.022718    1.205804    0.160182
      4          8           0        0.128181   -1.130677   -0.044713
      5          6           0       -1.405259    0.669204   -0.208561
      6          6           0       -1.270023   -0.821053    0.123778
      7          1           0        0.333443    2.027205   -0.455689
      8          1           0        0.032305    1.527572    1.202802
      9          1           0       -1.592727    0.800420   -1.274342
     10          1           0       -2.220615    1.139151    0.337352
     11          1           0       -1.546036   -1.039470    1.157276
     12          1           0       -1.833362   -1.474431   -0.537471
 ---------------------------------------------------------------------

 SCF Done:  E(ROHF) =  -304.835881471     A.U. after   12 cycles

 The electronic state is 1-A.
 Alpha  occ. eigenvalues --  -20.59972 -20.53875 -11.37702 -11.30383 -11.25623
 Alpha  occ. eigenvalues --  -11.25394  -1.45707  -1.36624  -1.09442  -0.99216
 Alpha  occ. eigenvalues --   -0.85773  -0.77750  -0.71211  -0.69593  -0.64975
 Alpha  occ. eigenvalues --   -0.61208  -0.59688  -0.58163  -0.54049  -0.51860
 Alpha  occ. eigenvalues --   -0.50168  -0.45543  -0.43748
 Alpha virt. eigenvalues --    0.03766   0.04457   0.05014   0.06196   0.07632
 Alpha virt. eigenvalues --    0.08276   0.08633   0.09052   0.09289   0.11477
 Alpha virt. eigenvalues --    0.12070   0.12184   0.13168   0.15837   0.16327

 Mulliken charges and spin densities:
               1          2
     1  O   -0.614460   0.000000
     2  C    0.722005   0.000000
     3  C   -0.129439   0.000000
     4  O   -0.533939   0.000000
     5  C   -0.105539   0.000000
     6  C    0.054311   0.000000
     7  H    0.114144   0.000000
     8  H    0.103331   0.000000
     9  H    0.086547   0.000000
    10  H    0.081794   0.000000
    11  H    0.107927   0.000000
    12  H    0.113320   0.000000
 Sum of Mulliken charges =  -0.00000   0.00000

 Dipole moment (field-independent basis, Debye):
    X=             -4.8966    Y=              1.7644    Z=              0.4321  Tot=              5.2227
 Quadrupole moment (field-independent basis, Debye-Ang):
   XX=            -41.7397   YY=            -35.4870   ZZ=            -33.5911
   XY=              1.8730   XZ=              0.2825   YZ=             -0.1233

 Normal termination of Gaussian 16 at Fri Sep 29 20:12:33 2023.
