 Gaussian 16, Revision B.01,
 Gaussian 16:  ES64L-G16RevB.01 20-Dec-2017

 --------------------
 # b3lyp/gen opt freq
 --------------------

 ----------------------------
 butyrolactone, B3LYP/pcseg-2
 ----------------------------
 Symbolic Z-matrix:
 Charge =  0 Multiplicity = 1

 SCF Done:  E(RB3LYP) =  -306.620373951     A.U. after   13 cycles
 SCF Done:  E(RB3LYP) =  -306.620630561     A.U. after   10 cycles
 SCF Done:  E(RB3LYP) =  -306.620495521     A.U. after   10 cycles
 SCF Done:  E(RB3LYP) =  -306.620648361     A.U. after    9 cycles
 SCF Done:  E(RB3LYP) =  -306.620649259     A.U. after    7 cycles
 SCF Done:  E(RB3LYP) =  -306.620649569     A.U. after    7 cycles
 Optimization completed.
    -- Stationary point found.
 Normal termination of Gaussian 16 at Fri Feb 25 21:17:24 2022.

 ------------------------------------------------------------------
 #N Geom=AllCheck Guess=TCheck SCRF=Check GenChk RB3LYP/ChkBas Freq
 ------------------------------------------------------------------

 Structure from the checkpoint file:  "/wrk/irikura/Gau-24996.chk"
 ----------------------------
 butyrolactone, B3LYP/pcseg-2
 ----------------------------
 Charge =  0 Multiplicity = 1

                         Standard orientation:
 ---------------------------------------------------------------------
 Center     Atomic      Atomic             Coordinates (Angstroms)
 Number     Number       Type             X           Y           Z
 ---------------------------------------------------------------------
      1          8           0        2.081754   -0.030419   -0.067495
      2          6           0        0.889213   -0.002368    0.002717
      3          6           0       -0.022819    1.205848    0.160015
      4          8           0        0.128313   -1.130701   -0.044735
      5          6           0       -1.405394    0.669195   -0.208295
      6          6           0       -1.269885   -0.821237    0.123642
      7          1           0        0.333240    2.026925   -0.456335
      8          1           0        0.032362    1.528169    1.202410
      9          1           0       -1.593215    0.800928   -1.273928
     10          1           0       -2.220572    1.138904    0.338079
     11          1           0       -1.545939   -1.040167    1.157019
     12          1           0       -1.833092   -1.474431   -0.537877
 ---------------------------------------------------------------------

 SCF Done:  E(RB3LYP) =  -306.620649569     A.U. after    1 cycles

 The electronic state is 1-A.
 Alpha  occ. eigenvalues --  -19.17099 -19.11079 -10.30382 -10.24644 -10.20035
 Alpha  occ. eigenvalues --  -10.20003  -1.10927  -1.03186  -0.81825  -0.74235
 Alpha  occ. eigenvalues --   -0.64004  -0.57096  -0.53125  -0.51186  -0.46546
 Alpha  occ. eigenvalues --   -0.45038  -0.43354  -0.41732  -0.38866  -0.36837
 Alpha  occ. eigenvalues --   -0.36137  -0.30898  -0.28049
 Alpha virt. eigenvalues --   -0.00531   0.00087   0.02910   0.03123   0.04499
 Alpha virt. eigenvalues --    0.07997   0.08249   0.08770   0.11988   0.13761
 Alpha virt. eigenvalues --    0.14532   0.14895   0.15987   0.17415   0.20881

 Mulliken charges:
               1
     1  O   -0.394356
     2  C    0.427151
     3  C   -0.073696
     4  O   -0.368444
     5  C   -0.094211
     6  C    0.188647
     7  H    0.071160
     8  H    0.057894
     9  H    0.049829
    10  H    0.051328
    11  H    0.036629
    12  H    0.048068
 Sum of Mulliken charges =  -0.00000

 Dipole moment (field-independent basis, Debye):
    X=             -4.5112    Y=              1.5565    Z=              0.3914  Tot=              4.7882
 Quadrupole moment (field-independent basis, Debye-Ang):
   XX=            -41.3000   YY=            -35.6473   ZZ=            -33.7994
   XY=              1.8032   XZ=              0.2645   YZ=             -0.1131

  Exact polarizability:  61.080   2.417  50.523  -0.529   0.141  41.074
 Approx polarizability:  85.201   4.168  69.067  -1.618   0.635  60.276

                      1                      2                      3
                      A                      A                      A
 Frequencies --    147.4725               201.5613               489.8366
 Red. masses --      2.5892                 2.1852                 6.1598
 Frc consts  --      0.0332                 0.0523                 0.8708
 IR Inten    --      1.1779                 1.9075                 3.0355

                      4                      5                      6
                      A                      A                      A
 Frequencies --    538.3827               642.3190               683.6337
 Red. masses --      2.1492                 2.7664                 5.8912
 Frc consts  --      0.3670                 0.6725                 1.6222
 IR Inten    --      3.8870                 5.3985                 4.1670

                      7                      8                      9
                      A                      A                      A
 Frequencies --    802.5754               874.2902               894.9512
 Red. masses --      2.8653                 2.3792                 1.5495
 Frc consts  --      1.0874                 1.0715                 0.7312
 IR Inten    --      4.4420                22.0513                 8.5031

                     10                     11                     12
                      A                      A                      A
 Frequencies --    933.6438              1008.3014              1053.9529
 Red. masses --      2.5037                 2.0439                 5.6213
 Frc consts  --      1.2859                 1.2243                 3.6790
 IR Inten    --      5.3474                21.7973                77.8381

                     13                     14                     15
                      A                      A                      A
 Frequencies --   1099.6731              1161.5600              1200.3637
 Red. masses --      1.7569                 4.3744                 1.3300
 Frc consts  --      1.2517                 3.4774                 1.1291
 IR Inten    --      9.4911               223.0417                 2.8368

                     16                     17                     18
                      A                      A                      A
 Frequencies --   1220.3930              1261.6678              1307.3933
 Red. masses --      1.3933                 1.1780                 1.4007
 Frc consts  --      1.2226                 1.1048                 1.4107
 IR Inten    --      8.9083                 7.5274                 5.5293

                     19                     20                     21
                      A                      A                      A
 Frequencies --   1345.0495              1398.2260              1468.2226
 Red. masses --      1.3752                 1.4199                 1.0818
 Frc consts  --      1.4659                 1.6355                 1.3739
 IR Inten    --      0.7636                16.4197                 8.2304

                     22                     23                     24
                      A                      A                      A
 Frequencies --   1503.2227              1528.8115              1848.0075
 Red. masses --      1.0953                 1.0906                12.7642
 Frc consts  --      1.4583                 1.5019                25.6833
 IR Inten    --      6.1302                 0.7990               435.5859

                     25                     26                     27
                      A                      A                      A
 Frequencies --   3041.5959              3050.3300              3061.0852
 Red. masses --      1.0687                 1.0700                 1.0622
 Frc consts  --      5.8250                 5.8658                 5.8644
 IR Inten    --     36.9298                 5.6504                21.3388

                     28                     29                     30
                      A                      A                      A
 Frequencies --   3108.1082              3119.2380              3128.1592
 Red. masses --      1.0979                 1.1015                 1.0977
 Frc consts  --      6.2491                 6.3144                 6.3287
 IR Inten    --     15.2125                22.3182                 8.9241

 - Thermochemistry -
 -------------------
 Temperature   298.150 Kelvin.  Pressure   1.00000 Atm.
 Atom     1 has atomic number  8 and mass  15.99491

 Molecular mass:    86.03678 amu.
 Principal axes and moments of inertia in atomic units:
                           1         2         3
     Eigenvalues --   246.99763 504.29986 707.21873
           X            0.99990   0.01372   0.00251
           Y           -0.01372   0.99990  -0.00202
           Z           -0.00254   0.00199   0.99999
 This molecule is an asymmetric top.
 Rotational symmetry number  1.
 Rotational temperatures (Kelvin)      0.35067     0.17175     0.12247
 Rotational constants (GHZ):           7.30671     3.57871     2.55189
 Zero-point vibrational energy     257927.0 (Joules/Mol)
                                   61.64603 (Kcal/Mol)
 Warning -- explicit consideration of   4 degrees of freedom as
           vibrations may cause significant error
 Vibrational temperatures:    212.18   290.00   704.77   774.61   924.15
          (Kelvin)            983.60  1154.73  1257.91  1287.64  1343.31
                             1450.72  1516.40  1582.18  1671.23  1727.06
                             1755.87  1815.26  1881.05  1935.23  2011.74
                             2112.44  2162.80  2199.62  2658.87  4376.18
                             4388.74  4404.22  4471.87  4487.89  4500.72

 Zero-point correction=                           0.098239 (Hartree/Particle)
 Thermal correction to Energy=                    0.103403
 Thermal correction to Enthalpy=                  0.104347
 Thermal correction to Gibbs Free Energy=         0.069590
 Sum of electronic and zero-point Energies=           -306.522410
 Sum of electronic and thermal Energies=              -306.517247
 Sum of electronic and thermal Enthalpies=            -306.516302
 Sum of electronic and thermal Free Energies=         -306.551059

                     E (Thermal)             CV                S
                      KCal/Mol        Cal/Mol-Kelvin    Cal/Mol-Kelvin
 Total                   64.886             18.484             73.152
 Electronic               0.000              0.000              0.000
 Translational            0.889              2.981             39.270
 Rotational               0.889              2.981             25.980
 Vibrational             63.109             12.522              7.902
 Vibration     1          0.617              1.905              2.705
 Vibration     2          0.638              1.838              2.119
 Vibration     3          0.846              1.273              0.684
 Vibration     4          0.893              1.165              0.569

 Optimization completed.
    -- Stationary point found.
 Normal termination of Gaussian 16 at Fri Feb 25 21:22:53 2022.
