 Gaussian 16, Revision B.01,

 ---------------------------------------
 # b3lyp/gen opt freq CPHF(Grid=OneStep)
 ---------------------------------------

 ---------------------------------
 1,2-diphenylethane, B3LYP/pcseg-2
 ---------------------------------
 Symbolic Z-matrix:
 Charge =  0 Multiplicity = 1

 SCF Done:  E(RB3LYP) =  -542.132554748     A.U. after   13 cycles
 Optimization completed.
    -- Stationary point found.
 Normal termination of Gaussian 16 at Sun Oct  1 01:25:20 2023.

 ------------------------------------------------------------------
 #N Geom=AllCheck Guess=TCheck SCRF=Check GenChk RB3LYP/ChkBas Freq
 ------------------------------------------------------------------

 Structure from the checkpoint file:  "Bz2.chk"
 ---------------------------------
 1,2-diphenylethane, B3LYP/pcseg-2
 ---------------------------------
 Charge =  0 Multiplicity = 1

 SCF Done:  E(RB3LYP) =  -542.132554748     A.U. after    1 cycles

  Exact polarizability: 117.996   0.115 186.684   0.000   0.000 161.503
 Approx polarizability: 187.848 -29.101 283.386  -0.000  -0.000 271.811

                      1                      2                      3
                      A                      B                      A
 Frequencies --     27.6610                29.1422                40.1100
 Red. masses --      4.0510                 3.6841                 4.5432
 Frc consts  --      0.0018                 0.0018                 0.0043
 IR Inten    --      0.0000                 0.0712                 0.0061

                      4                      5                      6
                      A                      B                      A
 Frequencies --    121.9023               122.6876               224.9807
 Red. masses --      3.4328                 4.3278                 4.4348
 Frc consts  --      0.0301                 0.0384                 0.1323
 IR Inten    --      0.0404                 1.0653                 0.4284

                      7                      8                      9
                      B                      B                      A
 Frequencies --    332.0424               362.0618               368.7606
 Red. masses --      2.6182                 2.8883                 1.9633
 Frc consts  --      0.1701                 0.2231                 0.1573
 IR Inten    --      0.3363                 0.0132                 0.1847

                     10                     11                     12
                      B                      A                      A
 Frequencies --    416.8996               417.0942               484.9255
 Red. masses --      2.8574                 2.8576                 3.8728
 Frc consts  --      0.2926                 0.2929                 0.5366
 IR Inten    --      0.0125                 0.0026                 0.6891

                     13                     14                     15
                      B                      A                      B
 Frequencies --    514.8706               549.9456               590.8070
 Red. masses --      3.7724                 3.6981                 2.6278
 Frc consts  --      0.5892                 0.6590                 0.5404
 IR Inten    --     12.6483                 3.2670                16.1332

                     16                     17                     18
                      A                      B                      B
 Frequencies --    638.3067               638.9343               717.4752
 Red. masses --      6.3141                 6.2781                 1.6925
 Frc consts  --      1.5157                 1.5101                 0.5133
 IR Inten    --      0.0242                 0.1301                73.3160

                     19                     20                     21
                      A                      A                      B
 Frequencies --    718.7670               755.2389               770.7760
 Red. masses --      1.6512                 2.9779                 1.6948
 Frc consts  --      0.5026                 1.0008                 0.5932
 IR Inten    --     12.4203                 2.7176                41.1945

                     22                     23                     24
                      A                      B                      B
 Frequencies --    783.0475               784.7280               861.2205
 Red. masses --      2.4280                 3.5583                 1.2518
 Frc consts  --      0.8772                 1.2910                 0.5471
 IR Inten    --      5.7458                 6.4053                 0.0360

                     25                     26                     27
                      A                      B                      A
 Frequencies --    861.9356               910.3043               929.1497
 Red. masses --      1.2500                 1.5019                 1.5353
 Frc consts  --      0.5472                 0.7333                 0.7810
 IR Inten    --      0.0516                 0.3520                 0.2635

                     28                     29                     30
                      A                      B                      A
 Frequencies --    946.3223               965.1029               993.8858
 Red. masses --      2.0965                 2.0732                 1.3802
 Frc consts  --      1.1062                 1.1378                 0.8032
 IR Inten    --      0.4596                 5.5707                 0.0000

                     31                     32                     33
                      B                      A                      B
 Frequencies --    994.0299              1008.8807              1011.8799
 Red. masses --      1.3789                 1.6998                 1.3033
 Frc consts  --      0.8028                 1.0193                 0.7862
 IR Inten    --      0.1130                 0.2139                 0.2345

                     34                     35                     36
                      A                      B                      A
 Frequencies --   1014.2448              1022.5640              1022.8219
 Red. masses --      1.6459                 6.2582                 6.2309
 Frc consts  --      0.9976                 3.8555                 3.8406
 IR Inten    --      0.0199                 0.0476                 0.0011

                     37                     38                     39
                      B                      A                      B
 Frequencies --   1052.8511              1053.8073              1095.3078
 Red. masses --      2.2320                 2.1869                 1.5911
 Frc consts  --      1.4578                 1.4309                 1.1246
 IR Inten    --      4.8359                 2.6115                 8.9599

                     40                     41                     42
                      A                      B                      A
 Frequencies --   1111.1949              1169.3572              1182.8811
 Red. masses --      1.5699                 1.2362                 1.1202
 Frc consts  --      1.1421                 0.9959                 0.9235
 IR Inten    --      4.0658                 1.3555                 0.0008

                     43                     44                     45
                      B                      B                      A
 Frequencies --   1183.5909              1205.4899              1205.8831
 Red. masses --      1.1045                 1.1569                 1.1428
 Frc consts  --      0.9116                 0.9905                 0.9791
 IR Inten    --      0.0802                 0.1567                 1.1140

                     46                     47                     48
                      A                      B                      A
 Frequencies --   1212.8548              1221.4245              1244.9680
 Red. masses --      1.9581                 2.3253                 1.5807
 Frc consts  --      1.6971                 2.0439                 1.4435
 IR Inten    --      0.5070                 1.4292                 1.4578

                     49                     50                     51
                      A                      B                      A
 Frequencies --   1324.1601              1338.1838              1348.6321
 Red. masses --      2.4547                 4.6615                 1.8978
 Frc consts  --      2.5359                 4.9182                 2.0337
 IR Inten    --      0.1258                 0.1902                 0.4872

                     52                     53                     54
                      B                      A                      B
 Frequencies --   1366.5380              1373.5768              1376.0320
 Red. masses --      1.3245                 1.2494                 1.4303
 Frc consts  --      1.4573                 1.3889                 1.5956
 IR Inten    --      0.2823                 0.8170                 7.5903

                     55                     56                     57
                      A                      B                      B
 Frequencies --   1487.6589              1488.7651              1489.3169
 Red. masses --      1.8394                 2.0655                 1.1285
 Frc consts  --      2.3985                 2.6973                 1.4748
 IR Inten    --      4.5042                 9.3715                 6.6790

                     58                     59                     60
                      A                      A                      B
 Frequencies --   1494.9376              1531.7527              1532.9418
 Red. masses --      1.2144                 2.2064                 2.1800
 Frc consts  --      1.5990                 3.0500                 3.0182
 IR Inten    --      0.3396                 8.2069                12.6070

                     61                     62                     63
                      A                      B                      B
 Frequencies --   1623.2327              1623.6422              1643.9043
 Red. masses --      5.3707                 5.3504                 5.5336
 Frc consts  --      8.3376                 8.3103                 8.8107
 IR Inten    --      0.4475                 1.1612                 9.0253

                     64                     65                     66
                      A                      B                      A
 Frequencies --   1644.9020              3025.8472              3033.4431
 Red. masses --      5.5044                 1.0620                 1.0593
 Frc consts  --      8.7749                 5.7288                 5.7429
 IR Inten    --      2.4055                12.9986                45.6761

                     67                     68                     69
                      A                      B                      A
 Frequencies --   3064.0578              3077.3993              3154.4872
 Red. masses --      1.1035                 1.1014                 1.0869
 Frc consts  --      6.1042                 6.1456                 6.3723
 IR Inten    --     14.9986                30.2350                12.9451

                     70                     71                     72
                      B                      A                      B
 Frequencies --   3154.5093              3164.3187              3164.3746
 Red. masses --      1.0870                 1.0860                 1.0861
 Frc consts  --      6.3727                 6.4071                 6.4074
 IR Inten    --      2.9574                 0.0231                 3.8605

                     73                     74                     75
                      A                      B                      A
 Frequencies --   3173.2453              3173.4120              3181.4827
 Red. masses --      1.0898                 1.0899                 1.0934
 Frc consts  --      6.4657                 6.4669                 6.5208
 IR Inten    --     13.2728                 3.2652                 5.9985

                     76                     77                     78
                      B                      B                      A
 Frequencies --   3181.5260              3192.6938              3192.7924
 Red. masses --      1.0935                 1.0975                 1.0974
 Frc consts  --      6.5212                 6.5910                 6.5911
 IR Inten    --     53.9632                12.6969                14.6564

 - Thermochemistry -
 -------------------
 Temperature   298.150 Kelvin.  Pressure   1.00000 Atm.
 Atom     1 has atomic number  6 and mass  12.00000

 Molecular mass:   182.10955 amu.
 Principal axes and moments of inertia in atomic units:
                           1         2         3
     Eigenvalues --  1348.053414224.638924771.87456
           X            0.41472   0.00000   0.90995
           Y            0.90995   0.00000  -0.41472
           Z           -0.00000   1.00000  -0.00000
 This molecule is an asymmetric top.
 Rotational symmetry number  2.
 Warning -- assumption of classical behavior for rotation
           may cause significant error
 Rotational temperatures (Kelvin)      0.06425     0.02050     0.01815
 Rotational constants (GHZ):           1.33878     0.42719     0.37820
 Zero-point vibrational energy     625137.8 (Joules/Mol)
                                  149.41153 (Kcal/Mol)
 Warning -- explicit consideration of  15 degrees of freedom as
           vibrations may cause significant error
 Vibrational temperatures:     39.80    41.93    57.71   175.39   176.52
          (Kelvin)            323.70   477.73   520.93   530.56   599.83
                              600.11   697.70   740.78   791.25   850.04
                              918.38   919.28  1032.29  1034.15  1086.62
                             1108.97  1126.63  1129.05  1239.10  1240.13
                             1309.72  1336.84  1361.55  1388.57  1429.98
                             1430.19  1451.55  1455.87  1459.27  1471.24
                             1471.61  1514.82  1516.19  1575.90  1598.76
                             1682.44  1701.90  1702.92  1734.43  1735.00
                             1745.03  1757.36  1791.23  1905.17  1925.35
                             1940.38  1966.14  1976.27  1979.80  2140.41
                             2142.00  2142.79  2150.88  2203.85  2205.56
                             2335.47  2336.06  2365.21  2366.65  4353.52
                             4364.45  4408.50  4427.69  4538.60  4538.64
                             4552.75  4552.83  4565.59  4565.83  4577.44
                             4577.51  4593.57  4593.72

 Zero-point correction=                           0.238102 (Hartree/Particle)
 Thermal correction to Energy=                    0.249656
 Thermal correction to Enthalpy=                  0.250600
 Thermal correction to Gibbs Free Energy=         0.198766
 Sum of electronic and zero-point Energies=           -541.894452
 Sum of electronic and thermal Energies=              -541.882899
 Sum of electronic and thermal Enthalpies=            -541.881955
 Sum of electronic and thermal Free Energies=         -541.933789

                     E (Thermal)             CV                S
                      KCal/Mol        Cal/Mol-Kelvin    Cal/Mol-Kelvin
 Total                  156.661             45.786            109.095
 Electronic               0.000              0.000              0.000
 Translational            0.889              2.981             41.505
 Rotational               0.889              2.981             30.297
 Vibrational            154.884             39.825             37.293
 Vibration     1          0.593              1.984              5.990
 Vibration     2          0.593              1.984              5.887
 Vibration     3          0.594              1.981              5.254
 Vibration     4          0.609              1.931              3.070
 Vibration     5          0.610              1.930              3.058
 Vibration     6          0.650              1.803              1.919
 Vibration     7          0.714              1.612              1.250
 Vibration     8          0.736              1.550              1.113
 Vibration     9          0.741              1.536              1.085
 Vibration    10          0.780              1.434              0.903
 Vibration    11          0.780              1.433              0.902
 Vibration    12          0.841              1.283              0.697
 Vibration    13          0.870              1.217              0.622
 Vibration    14          0.905              1.140              0.544
 Vibration    15          0.948              1.051              0.466

 Optimization completed.
    -- Stationary point found.
 Normal termination of Gaussian 16 at Sun Oct  1 03:49:47 2023.
 Gaussian 16:  ES64L-G16RevB.01 20-Dec-2017

 ---------------------------------
 # rohf/gen geom=check guess=check
 ---------------------------------

 ------------------------------------
 1,2-diphenylethane, ROHF/cc-pVTZ-F12
 ------------------------------------
 Structure from the checkpoint file:  "Bz2.chk"
 Charge =  0 Multiplicity = 1

                         Standard orientation:
 ---------------------------------------------------------------------
 Center     Atomic      Atomic             Coordinates (Angstroms)
 Number     Number       Type             X           Y           Z
 ---------------------------------------------------------------------
      1          6           0       -1.860171   -1.764237   -1.475345
      2          6           0        1.860171    1.764237   -1.475345
      3          6           0        1.645906    0.878229   -0.424970
      4          6           0        0.706928    3.482336   -0.256552
      5          6           0       -1.390422   -3.069568   -1.395528
      6          6           0        1.390422    3.069568   -1.395528
      7          6           0       -1.645906   -0.878229   -0.424970
      8          6           0       -0.706928   -3.482336   -0.256552
      9          6           0       -0.960147   -1.277088    0.722587
     10          6           0        0.960147    1.277088    0.722587
     11          6           0        0.496346    2.593160    0.790025
     12          6           0       -0.496346   -2.593160    0.790025
     13          6           0       -0.706928   -0.317408    1.859761
     14          6           0        0.706928    0.317408    1.859761
     15          1           0       -2.395342   -1.433586   -2.355688
     16          1           0        2.395342    1.433586   -2.355688
     17          1           0       -1.558912   -3.760795   -2.210355
     18          1           0        1.558912    3.760795   -2.210355
     19          1           0       -2.014762    0.136833   -0.497439
     20          1           0        2.014762   -0.136833   -0.497439
     21          1           0        0.343449    4.498740   -0.180756
     22          1           0       -0.343449   -4.498740   -0.180756
     23          1           0       -0.029552    2.927534    1.676469
     24          1           0        0.029552   -2.927534    1.676469
     25          1           0        1.451376   -0.480439    1.839825
     26          1           0       -1.451376    0.480439    1.839825
     27          1           0       -0.835971   -0.844245    2.808072
     28          1           0        0.835971    0.844245    2.808072
 ---------------------------------------------------------------------

 SCF Done:  E(ROHF) =  -538.523827721     A.U. after   12 cycles

 The electronic state is 1-A.
 Alpha  occ. eigenvalues --  -11.23562 -11.23562 -11.23047 -11.23047 -11.23034
 Alpha  occ. eigenvalues --  -11.22978 -11.22926 -11.22926 -11.22703 -11.22703
 Alpha  occ. eigenvalues --  -11.22674 -11.22674 -11.22509 -11.22509  -1.15819
 Alpha  occ. eigenvalues --   -1.14954  -1.07537  -1.02609  -1.01107  -1.01092
 Alpha  occ. eigenvalues --   -0.96634  -0.87613  -0.82553  -0.82394  -0.80347
 Alpha  occ. eigenvalues --   -0.77870  -0.69636  -0.68979  -0.64679  -0.64082
 Alpha  occ. eigenvalues --   -0.62632  -0.62352  -0.59125  -0.58475  -0.58150
 Alpha  occ. eigenvalues --   -0.57492  -0.56003  -0.53489  -0.51587  -0.49803
 Alpha  occ. eigenvalues --   -0.49201  -0.48631  -0.47959  -0.47334  -0.46874
 Alpha  occ. eigenvalues --   -0.33678  -0.33366  -0.32579  -0.32084
 Alpha virt. eigenvalues --    0.03698   0.04556   0.04665   0.05029   0.05972
 Alpha virt. eigenvalues --    0.06076   0.06491   0.06935   0.07821   0.08156
 Alpha virt. eigenvalues --    0.08314   0.09021   0.09268   0.09775   0.09919

 Mulliken charges and spin densities:
               1          2
     1  C   -0.135950  -0.000000
     2  C   -0.135950  -0.000000
     3  C   -0.180041  -0.000000
     4  C   -0.164630  -0.000000
     5  C   -0.163726  -0.000000
     6  C   -0.163726  -0.000000
     7  C   -0.180041  -0.000000
     8  C   -0.164630  -0.000000
     9  C    0.234844  -0.000000
    10  C    0.234844  -0.000000
    11  C   -0.202918  -0.000000
    12  C   -0.202918  -0.000000
    13  C   -0.269610   0.000000
    14  C   -0.269610   0.000000
    15  H    0.140151  -0.000000
    16  H    0.140151  -0.000000
    17  H    0.138851  -0.000000
    18  H    0.138851  -0.000000
    19  H    0.139535  -0.000000
    20  H    0.139535  -0.000000
    21  H    0.138025  -0.000000
    22  H    0.138025  -0.000000
    23  H    0.126238  -0.000000
    24  H    0.126238  -0.000000
    25  H    0.095208  -0.000000
    26  H    0.095208  -0.000000
    27  H    0.104024  -0.000000
    28  H    0.104024  -0.000000
 Sum of Mulliken charges =  -0.00000  -0.00000

 Dipole moment (field-independent basis, Debye):
    X=             -0.0000    Y=             -0.0000    Z=              0.3488  Tot=              0.3488
 Quadrupole moment (field-independent basis, Debye-Ang):
   XX=            -88.7291   YY=            -79.6528   ZZ=            -78.5407
   XY=             -4.8543   XZ=             -0.0000   YZ=              0.0000

 Normal termination of Gaussian 16 at Sun Oct  1 04:42:59 2023.
