 Gaussian 16, Revision B.01,
 Gaussian 16:  ES64L-G16RevB.01 20-Dec-2017

 --------------------
 # b3lyp/gen opt freq
 --------------------

 ---------------------------------
 1,2-diphenylethane, B3LYP/pcseg-2
 ---------------------------------
 Symbolic Z-matrix:
 Charge =  0 Multiplicity = 1

 SCF Done:  E(RB3LYP) =  -542.132267751     A.U. after   13 cycles
 SCF Done:  E(RB3LYP) =  -542.132519719     A.U. after   11 cycles
 SCF Done:  E(RB3LYP) =  -542.132546223     A.U. after   10 cycles
 SCF Done:  E(RB3LYP) =  -542.132551551     A.U. after   10 cycles
 SCF Done:  E(RB3LYP) =  -542.132553879     A.U. after    9 cycles
 SCF Done:  E(RB3LYP) =  -542.132554717     A.U. after    9 cycles
 SCF Done:  E(RB3LYP) =  -542.132554748     A.U. after    6 cycles
 Optimization completed.
    -- Stationary point found.
 Normal termination of Gaussian 16 at Sat Jun 18 11:38:11 2022.

 ------------------------------------------------------------------
 #N Geom=AllCheck Guess=TCheck SCRF=Check GenChk RB3LYP/ChkBas Freq
 ------------------------------------------------------------------

 Structure from the checkpoint file:  "/wrk/irikura/Gau-29794.chk"
 ---------------------------------
 1,2-diphenylethane, B3LYP/pcseg-2
 ---------------------------------
 Charge =  0 Multiplicity = 1

                         Standard orientation:
 ---------------------------------------------------------------------
 Center     Atomic      Atomic             Coordinates (Angstroms)
 Number     Number       Type             X           Y           Z
 ---------------------------------------------------------------------
      1          6           0       -1.860171   -1.764237   -1.475345
      2          6           0        1.860171    1.764237   -1.475345
      3          6           0        1.645906    0.878229   -0.424970
      4          6           0        0.706928    3.482336   -0.256552
      5          6           0       -1.390422   -3.069568   -1.395528
      6          6           0        1.390422    3.069568   -1.395528
      7          6           0       -1.645906   -0.878229   -0.424970
      8          6           0       -0.706928   -3.482336   -0.256552
      9          6           0       -0.960147   -1.277088    0.722587
     10          6           0        0.960147    1.277088    0.722587
     11          6           0        0.496346    2.593160    0.790025
     12          6           0       -0.496346   -2.593160    0.790025
     13          6           0       -0.706928   -0.317408    1.859761
     14          6           0        0.706928    0.317408    1.859761
     15          1           0       -2.395342   -1.433586   -2.355688
     16          1           0        2.395342    1.433586   -2.355688
     17          1           0       -1.558912   -3.760795   -2.210355
     18          1           0        1.558912    3.760795   -2.210355
     19          1           0       -2.014762    0.136833   -0.497439
     20          1           0        2.014762   -0.136833   -0.497439
     21          1           0        0.343449    4.498740   -0.180756
     22          1           0       -0.343449   -4.498740   -0.180756
     23          1           0       -0.029552    2.927534    1.676469
     24          1           0        0.029552   -2.927534    1.676469
     25          1           0        1.451376   -0.480439    1.839825
     26          1           0       -1.451376    0.480439    1.839825
     27          1           0       -0.835971   -0.844245    2.808072
     28          1           0        0.835971    0.844245    2.808072
 ---------------------------------------------------------------------

 SCF Done:  E(RB3LYP) =  -542.132554748     A.U. after    1 cycles

 The electronic state is 1-A.
 Alpha  occ. eigenvalues --  -10.18003 -10.18003 -10.17759 -10.17739 -10.17357
 Alpha  occ. eigenvalues --  -10.17357 -10.17254 -10.17254 -10.17172 -10.17172
 Alpha  occ. eigenvalues --  -10.17140 -10.17140 -10.17007 -10.17007  -0.86423
 Alpha  occ. eigenvalues --   -0.85693  -0.80015  -0.75888  -0.74644  -0.74634
 Alpha  occ. eigenvalues --   -0.71274  -0.64550  -0.60852  -0.60693  -0.59105
 Alpha  occ. eigenvalues --   -0.57258  -0.51817  -0.51111  -0.47454  -0.46813
 Alpha  occ. eigenvalues --   -0.45536  -0.45133  -0.43371  -0.42439  -0.42138
 Alpha  occ. eigenvalues --   -0.41684  -0.41119  -0.38381  -0.37031  -0.36815
 Alpha  occ. eigenvalues --   -0.35631  -0.34429  -0.34332  -0.33494  -0.33153
 Alpha  occ. eigenvalues --   -0.25866  -0.25657  -0.25139  -0.24469
 Alpha virt. eigenvalues --   -0.01720  -0.01584  -0.01235  -0.01048   0.01398
 Alpha virt. eigenvalues --    0.02452   0.03179   0.03522   0.04766   0.05357
 Alpha virt. eigenvalues --    0.06006   0.06077   0.07361   0.08133   0.08635

 Mulliken charges:
               1
     1  C    0.003919
     2  C    0.003919
     3  C   -0.137616
     4  C    0.001201
     5  C   -0.024836
     6  C   -0.024836
     7  C   -0.137616
     8  C    0.001201
     9  C    0.279628
    10  C    0.279628
    11  C   -0.186286
    12  C   -0.186286
    13  C   -0.055063
    14  C   -0.055063
    15  H    0.015297
    16  H    0.015297
    17  H    0.017212
    18  H    0.017212
    19  H    0.001356
    20  H    0.001356
    21  H    0.014931
    22  H    0.014931
    23  H   -0.005031
    24  H   -0.005031
    25  H    0.034440
    26  H    0.034440
    27  H    0.040848
    28  H    0.040848
 Sum of Mulliken charges =  -0.00000

 Dipole moment (field-independent basis, Debye):
    X=              0.0000    Y=             -0.0000    Z=              0.3271  Tot=              0.3271
 Quadrupole moment (field-independent basis, Debye-Ang):
   XX=            -87.5801   YY=            -79.6961   ZZ=            -78.6168
   XY=             -4.2372   XZ=             -0.0000   YZ=              0.0000

  Exact polarizability: 117.997   0.118 186.688   0.000   0.000 161.502
 Approx polarizability: 187.848 -29.101 283.385  -0.000   0.000 271.811

                      1                      2                      3
                      A                      B                      A
 Frequencies --     27.6725                29.1431                40.1147
 Red. masses --      4.0514                 3.6841                 4.5427
 Frc consts  --      0.0018                 0.0018                 0.0043
 IR Inten    --      0.0000                 0.0714                 0.0061

                      4                      5                      6
                      A                      B                      A
 Frequencies --    121.9040               122.6885               224.9825
 Red. masses --      3.4328                 4.3278                 4.4348
 Frc consts  --      0.0301                 0.0384                 0.1323
 IR Inten    --      0.0404                 1.0648                 0.4286

                      7                      8                      9
                      B                      B                      A
 Frequencies --    332.0427               362.0627               368.7618
 Red. masses --      2.6182                 2.8883                 1.9633
 Frc consts  --      0.1701                 0.2231                 0.1573
 IR Inten    --      0.3363                 0.0133                 0.1845

                     10                     11                     12
                      B                      A                      A
 Frequencies --    416.8963               417.0936               484.9262
 Red. masses --      2.8574                 2.8576                 3.8729
 Frc consts  --      0.2926                 0.2929                 0.5366
 IR Inten    --      0.0127                 0.0026                 0.6889

                     13                     14                     15
                      B                      A                      B
 Frequencies --    514.8722               549.9497               590.8103
 Red. masses --      3.7724                 3.6981                 2.6278
 Frc consts  --      0.5892                 0.6590                 0.5404
 IR Inten    --     12.6484                 3.2665                16.1358

                     16                     17                     18
                      A                      B                      B
 Frequencies --    638.3045               638.9309               717.4718
 Red. masses --      6.3141                 6.2781                 1.6925
 Frc consts  --      1.5157                 1.5100                 0.5133
 IR Inten    --      0.0243                 0.1304                73.3318

                     19                     20                     21
                      A                      A                      B
 Frequencies --    718.7669               755.2411               770.7770
 Red. masses --      1.6512                 2.9779                 1.6949
 Frc consts  --      0.5026                 1.0008                 0.5933
 IR Inten    --     12.4199                 2.7174                41.1886

                     22                     23                     24
                      A                      B                      B
 Frequencies --    783.0467               784.7277               861.2207
 Red. masses --      2.4279                 3.5584                 1.2518
 Frc consts  --      0.8771                 1.2910                 0.5471
 IR Inten    --      5.7459                 6.4138                 0.0356

                     25                     26                     27
                      A                      B                      A
 Frequencies --    861.9396               910.2992               929.1497
 Red. masses --      1.2500                 1.5019                 1.5354
 Frc consts  --      0.5472                 0.7333                 0.7810
 IR Inten    --      0.0517                 0.3526                 0.2632

                     28                     29                     30
                      A                      B                      A
 Frequencies --    946.3255               965.1025               993.8849
 Red. masses --      2.0965                 2.0732                 1.3802
 Frc consts  --      1.1062                 1.1377                 0.8032
 IR Inten    --      0.4600                 5.5716                 0.0000

                     31                     32                     33
                      B                      A                      B
 Frequencies --    994.0294              1008.8797              1011.8794
 Red. masses --      1.3789                 1.6996                 1.3033
 Frc consts  --      0.8028                 1.0192                 0.7862
 IR Inten    --      0.1128                 0.2137                 0.2350

                     34                     35                     36
                      A                      B                      A
 Frequencies --   1014.2441              1022.5646              1022.8238
 Red. masses --      1.6460                 6.2583                 6.2310
 Frc consts  --      0.9976                 3.8555                 3.8407
 IR Inten    --      0.0199                 0.0478                 0.0011

                     37                     38                     39
                      B                      A                      B
 Frequencies --   1052.8499              1053.8086              1095.3103
 Red. masses --      2.2320                 2.1869                 1.5910
 Frc consts  --      1.4577                 1.4309                 1.1246
 IR Inten    --      4.8402                 2.6117                 8.9588

                     40                     41                     42
                      A                      B                      A
 Frequencies --   1111.1942              1169.3533              1182.8806
 Red. masses --      1.5698                 1.2362                 1.1202
 Frc consts  --      1.1420                 0.9959                 0.9235
 IR Inten    --      4.0655                 1.3540                 0.0008

                     43                     44                     45
                      B                      B                      A
 Frequencies --   1183.5899              1205.4888              1205.8828
 Red. masses --      1.1045                 1.1568                 1.1428
 Frc consts  --      0.9116                 0.9905                 0.9791
 IR Inten    --      0.0806                 0.1574                 1.1140

                     46                     47                     48
                      A                      B                      A
 Frequencies --   1212.8517              1221.4231              1244.9698
 Red. masses --      1.9583                 2.3255                 1.5807
 Frc consts  --      1.6972                 2.0441                 1.4435
 IR Inten    --      0.5063                 1.4270                 1.4576

                     49                     50                     51
                      A                      B                      A
 Frequencies --   1324.1601              1338.1821              1348.6337
 Red. masses --      2.4546                 4.6617                 1.8979
 Frc consts  --      2.5358                 4.9184                 2.0338
 IR Inten    --      0.1259                 0.1921                 0.4872

                     52                     53                     54
                      B                      A                      B
 Frequencies --   1366.5360              1373.5767              1376.0313
 Red. masses --      1.3245                 1.2494                 1.4303
 Frc consts  --      1.4573                 1.3889                 1.5956
 IR Inten    --      0.2834                 0.8170                 7.5873

                     55                     56                     57
                      A                      B                      B
 Frequencies --   1487.6606              1488.7666              1489.3149
 Red. masses --      1.8389                 2.0631                 1.1292
 Frc consts  --      2.3978                 2.6942                 1.4757
 IR Inten    --      4.5060                 9.3940                 6.6533

                     58                     59                     60
                      A                      A                      B
 Frequencies --   1494.9348              1531.7536              1532.9434
 Red. masses --      1.2146                 2.2064                 2.1799
 Frc consts  --      1.5993                 3.0501                 3.0182
 IR Inten    --      0.3390                 8.2067                12.6017

                     61                     62                     63
                      A                      B                      B
 Frequencies --   1623.2309              1623.6394              1643.9055
 Red. masses --      5.3707                 5.3503                 5.5335
 Frc consts  --      8.3377                 8.3102                 8.8106
 IR Inten    --      0.4482                 1.1619                 9.0153

                     64                     65                     66
                      A                      B                      A
 Frequencies --   1644.9033              3025.8483              3033.4401
 Red. masses --      5.5044                 1.0620                 1.0593
 Frc consts  --      8.7749                 5.7288                 5.7429
 IR Inten    --      2.4053                13.0003                45.6638

                     67                     68                     69
                      A                      B                      A
 Frequencies --   3064.0506              3077.3928              3154.4776
 Red. masses --      1.1035                 1.1014                 1.0869
 Frc consts  --      6.1041                 6.1456                 6.3723
 IR Inten    --     15.0003                30.2343                12.9497

                     70                     71                     72
                      B                      A                      B
 Frequencies --   3154.4998              3164.3167              3164.3725
 Red. masses --      1.0870                 1.0860                 1.0861
 Frc consts  --      6.3727                 6.4071                 6.4074
 IR Inten    --      2.9561                 0.0236                 3.8810

                     73                     74                     75
                      A                      B                      A
 Frequencies --   3173.2407              3173.4070              3181.4805
 Red. masses --      1.0898                 1.0899                 1.0934
 Frc consts  --      6.4657                 6.4668                 6.5208
 IR Inten    --     13.2682                 3.2638                 5.9919

                     76                     77                     78
                      B                      B                      A
 Frequencies --   3181.5241              3192.6963              3192.7947
 Red. masses --      1.0935                 1.0975                 1.0974
 Frc consts  --      6.5212                 6.5910                 6.5911
 IR Inten    --     53.9733                12.6873                14.6669

 - Thermochemistry -
 -------------------
 Temperature   298.150 Kelvin.  Pressure   1.00000 Atm.
 Atom     1 has atomic number  6 and mass  12.00000

 Molecular mass:   182.10955 amu.
 Principal axes and moments of inertia in atomic units:
                           1         2         3
     Eigenvalues --  1348.053564224.639514771.87554
           X            0.41472   0.00000   0.90995
           Y            0.90995   0.00000  -0.41472
           Z            0.00000   1.00000  -0.00000
 This molecule is an asymmetric top.
 Rotational symmetry number  2.
 Warning -- assumption of classical behavior for rotation
           may cause significant error
 Rotational temperatures (Kelvin)      0.06425     0.02050     0.01815
 Rotational constants (GHZ):           1.33878     0.42719     0.37820
 Zero-point vibrational energy     625137.6 (Joules/Mol)
                                  149.41148 (Kcal/Mol)
 Warning -- explicit consideration of  15 degrees of freedom as
           vibrations may cause significant error
 Vibrational temperatures:     39.81    41.93    57.72   175.39   176.52
          (Kelvin)            323.70   477.74   520.93   530.57   599.82
                              600.10   697.70   740.79   791.25   850.04
                              918.38   919.28  1032.28  1034.15  1086.62
                             1108.98  1126.63  1129.05  1239.10  1240.14
                             1309.72  1336.84  1361.55  1388.57  1429.98
                             1430.19  1451.55  1455.87  1459.27  1471.24
                             1471.62  1514.82  1516.20  1575.91  1598.76
                             1682.44  1701.90  1702.92  1734.43  1735.00
                             1745.02  1757.36  1791.23  1905.17  1925.35
                             1940.38  1966.14  1976.27  1979.80  2140.41
                             2142.00  2142.79  2150.88  2203.85  2205.56
                             2335.47  2336.05  2365.21  2366.65  4353.52
                             4364.44  4408.49  4427.68  4538.59  4538.62
                             4552.75  4552.83  4565.59  4565.82  4577.44
                             4577.50  4593.58  4593.72

 Zero-point correction=                           0.238102 (Hartree/Particle)
 Thermal correction to Energy=                    0.249656
 Thermal correction to Enthalpy=                  0.250600
 Thermal correction to Gibbs Free Energy=         0.198766
 Sum of electronic and zero-point Energies=           -541.894452
 Sum of electronic and thermal Energies=              -541.882899
 Sum of electronic and thermal Enthalpies=            -541.881955
 Sum of electronic and thermal Free Energies=         -541.933789

                     E (Thermal)             CV                S
                      KCal/Mol        Cal/Mol-Kelvin    Cal/Mol-Kelvin
 Total                  156.661             45.786            109.094
 Electronic               0.000              0.000              0.000
 Translational            0.889              2.981             41.505
 Rotational               0.889              2.981             30.297
 Vibrational            154.884             39.825             37.291
 Vibration     1          0.593              1.984              5.990
 Vibration     2          0.593              1.984              5.887
 Vibration     3          0.594              1.981              5.253
 Vibration     4          0.609              1.931              3.070
 Vibration     5          0.610              1.930              3.058
 Vibration     6          0.650              1.803              1.919
 Vibration     7          0.714              1.612              1.250
 Vibration     8          0.736              1.550              1.113
 Vibration     9          0.741              1.536              1.085
 Vibration    10          0.780              1.434              0.903
 Vibration    11          0.780              1.433              0.902
 Vibration    12          0.841              1.283              0.697
 Vibration    13          0.870              1.217              0.622
 Vibration    14          0.905              1.140              0.544
 Vibration    15          0.948              1.051              0.466

 Optimization completed.
    -- Stationary point found.
 Normal termination of Gaussian 16 at Sat Jun 18 12:19:28 2022.
