 Gaussian 16, Revision B.01,
 Gaussian 16:  ES64L-G16RevB.01 20-Dec-2017

 --------------------
 # b3lyp/gen opt freq
 --------------------

 --------------------------
 carbon atom, B3LYP/pcseg-2
 --------------------------
 Symbolic Z-matrix:
 Charge =  0 Multiplicity = 3

 SCF Done:  E(UB3LYP) =  -37.8591375660     A.U. after    7 cycles
 Optimization completed.
    -- Stationary point found.
 Normal termination of Gaussian 16 at Thu Feb  3 17:53:28 2022.

 ------------------------------------------------------------------
 #N Geom=AllCheck Guess=TCheck SCRF=Check GenChk UB3LYP/ChkBas Freq
 ------------------------------------------------------------------

 Structure from the checkpoint file:  "/wrk/irikura/Gau-928.chk"
 --------------------------
 carbon atom, B3LYP/pcseg-2
 --------------------------
 Charge =  0 Multiplicity = 3

                         Standard orientation:
 ---------------------------------------------------------------------
 Center     Atomic      Atomic             Coordinates (Angstroms)
 Number     Number       Type             X           Y           Z
 ---------------------------------------------------------------------
      1          6           0        0.000000    0.000000    0.000000
 ---------------------------------------------------------------------

 SCF Done:  E(UB3LYP) =  -37.8591375660     A.U. after    1 cycles

 Unable to determine electronic state:  an orbital has unidentified symmetry.
 Alpha  occ. eigenvalues --  -10.30842  -0.58950  -0.26930  -0.26930
 Alpha virt. eigenvalues --   -0.15741   0.13641   0.17274   0.17274   0.18640
 Alpha virt. eigenvalues --    0.90576   0.90576   0.91107   0.91107   0.92213
 Alpha virt. eigenvalues --    1.19005   1.19005   1.21689   1.47709   3.27858

  Beta  occ. eigenvalues --  -10.27808  -0.48042
  Beta virt. eigenvalues --   -0.12879  -0.08368  -0.08368   0.15808   0.19427
  Beta virt. eigenvalues --    0.21486   0.21486   0.95849   0.96970   0.96970
  Beta virt. eigenvalues --    1.00308   1.00308   1.23556   1.27552   1.27552

 Mulliken charges and spin densities:
               1          2
     1  C   -0.000000   2.000000
 Sum of Mulliken charges =  -0.00000   2.00000

 Dipole moment (field-independent basis, Debye):
    X=              0.0000    Y=              0.0000    Z=              0.0000  Tot=              0.0000
 Quadrupole moment (field-independent basis, Debye-Ang):
   XX=             -6.9670   YY=             -6.9670   ZZ=             -4.9474
   XY=              0.0000   XZ=              0.0000   YZ=             -0.0000

  Exact polarizability:   9.296   0.000   9.296  -0.000   0.000   7.992
 Approx polarizability:   9.224  -0.000   9.224  -0.000  -0.000  11.794

 - Thermochemistry -
 -------------------
 Temperature   298.150 Kelvin.  Pressure   1.00000 Atm.
 Atom     1 has atomic number  6 and mass  12.00000
 Molecular mass:    12.00000 amu.
 Zero-point vibrational energy          0.0 (Joules/Mol)
                                    0.00000 (Kcal/Mol)
 Vibrational temperatures:
          (Kelvin)

 Zero-point correction=                           0.000000 (Hartree/Particle)
 Thermal correction to Energy=                    0.001416
 Thermal correction to Enthalpy=                  0.002360
 Thermal correction to Gibbs Free Energy=        -0.014545
 Sum of electronic and zero-point Energies=            -37.859138
 Sum of electronic and thermal Energies=               -37.857721
 Sum of electronic and thermal Enthalpies=             -37.856777
 Sum of electronic and thermal Free Energies=          -37.873683

                     E (Thermal)             CV                S
                      KCal/Mol        Cal/Mol-Kelvin    Cal/Mol-Kelvin
 Total                    0.889              2.981             35.581
 Electronic               0.000              0.000              2.183
 Translational            0.889              2.981             33.398
 Rotational               0.000              0.000              0.000
 Vibrational              0.000              0.000              0.000

 Optimization completed.
    -- Stationary point found.
 Normal termination of Gaussian 16 at Thu Feb  3 17:53:32 2022.
