 Gaussian 16, Revision B.01,

 ---------------------------------------
 # b3lyp/gen opt freq CPHF(Grid=OneStep)
 ---------------------------------------

 -------------------------------
 hexachloroethane, B3LYP/pcseg-2
 -------------------------------
 Symbolic Z-matrix:
 Charge =  0 Multiplicity = 1

 SCF Done:  E(RB3LYP) =  -2837.61182245     A.U. after   12 cycles
 Optimization completed.
    -- Stationary point found.
 Normal termination of Gaussian 16 at Fri Sep 29 16:49:11 2023.

 ------------------------------------------------------------------
 #N Geom=AllCheck Guess=TCheck SCRF=Check GenChk RB3LYP/ChkBas Freq
 ------------------------------------------------------------------

 Structure from the checkpoint file:  "c2cl6.chk"
 -------------------------------
 hexachloroethane, B3LYP/pcseg-2
 -------------------------------
 Charge =  0 Multiplicity = 1

 SCF Done:  E(RB3LYP) =  -2837.61182245     A.U. after    3 cycles

  Exact polarizability:  96.777   0.000  96.777  -0.000   0.000  84.275
 Approx polarizability: 164.872   0.000 164.872  -0.000   0.000 122.689

                      1                      2                      3
                     A1U                    EU                     EU
 Frequencies --     79.6520               161.8067               161.8068
 Red. masses --     34.9689                34.3122                34.3122
 Frc consts  --      0.1307                 0.5293                 0.5293
 IR Inten    --      0.0000                 0.2158                 0.2158

                      4                      5                      6
                     A1G                    EG                     EG
 Frequencies --    218.6507               219.3571               219.3572
 Red. masses --     34.5270                34.7769                34.7769
 Frc consts  --      0.9725                 0.9859                 0.9859
 IR Inten    --      0.0000                 0.0000                 0.0000

                      7                      8                      9
                     EU                     EU                     EG
 Frequencies --    274.4307               274.4317               330.6386
 Red. masses --     31.8026                31.8025                33.6248
 Frc consts  --      1.4112                 1.4112                 2.1658
 IR Inten    --      0.0507                 0.0507                 0.0000

                     10                     11                     12
                     EG                     A2U                    A1G
 Frequencies --    330.6395               372.8120               424.0379
 Red. masses --     33.6249                29.1400                34.1675
 Frc consts  --      2.1658                 2.3863                 3.6197
 IR Inten    --      0.0000                 0.5024                 0.0000

                     13                     14                     15
                     A2U                    EU                     EU
 Frequencies --    672.3128               738.8461               738.8559
 Red. masses --     13.8899                13.4553                13.4552
 Frc consts  --      3.6991                 4.3276                 4.3277
 IR Inten    --     62.5783               226.2944               226.3092

                     16                     17                     18
                     EG                     EG                     A1G
 Frequencies --    820.3630               820.3694               930.4330
 Red. masses --     12.3631                12.3631                12.1512
 Frc consts  --      4.9022                 4.9022                 6.1978
 IR Inten    --      0.0000                 0.0000                 0.0000

 - Thermochemistry -
 -------------------
 Temperature   298.150 Kelvin.  Pressure   1.00000 Atm.
 Atom     1 has atomic number  6 and mass  12.00000

 Molecular mass:   233.81312 amu.
 Principal axes and moments of inertia in atomic units:
                           1         2         3
     Eigenvalues --  2108.198082586.533312586.53331
           X           -0.00000  -0.54703   0.83711
           Y            0.00000   0.83711   0.54703
           Z            1.00000  -0.00000   0.00000
 This molecule is a prolate symmetric top.
 Rotational symmetry number  6.
 Warning -- assumption of classical behavior for rotation
           may cause significant error
 Rotational temperatures (Kelvin)      0.04108     0.03349     0.03349
 Rotational constants (GHZ):           0.85606     0.69775     0.69775
 Zero-point vibrational energy      46587.4 (Joules/Mol)
                                   11.13465 (Kcal/Mol)
 Warning -- explicit consideration of  12 degrees of freedom as
           vibrations may cause significant error
 Vibrational temperatures:    114.60   232.80   232.80   314.59   315.61
          (Kelvin)            315.61   394.84   394.85   475.72   475.72
                              536.39   610.10   967.31  1063.03  1063.05
                             1180.32  1180.33  1338.69

 Zero-point correction=                           0.017744 (Hartree/Particle)
 Thermal correction to Energy=                    0.027001
 Thermal correction to Enthalpy=                  0.027945
 Thermal correction to Gibbs Free Energy=        -0.016498
 Sum of electronic and zero-point Energies=          -2837.594078
 Sum of electronic and thermal Energies=             -2837.584821
 Sum of electronic and thermal Enthalpies=           -2837.583877
 Sum of electronic and thermal Free Energies=        -2837.628320

                     E (Thermal)             CV                S
                      KCal/Mol        Cal/Mol-Kelvin    Cal/Mol-Kelvin
 Total                   16.944             30.846             93.538
 Electronic               0.000              0.000              0.000
 Translational            0.889              2.981             42.250
 Rotational               0.889              2.981             27.463
 Vibrational             15.166             24.885             23.826
 Vibration     1          0.600              1.963              3.899
 Vibration     2          0.622              1.889              2.529
 Vibration     3          0.622              1.889              2.529
 Vibration     4          0.646              1.813              1.970
 Vibration     5          0.647              1.812              1.964
 Vibration     6          0.647              1.812              1.964
 Vibration     7          0.677              1.721              1.568
 Vibration     8          0.677              1.721              1.568
 Vibration     9          0.713              1.614              1.257
 Vibration    10          0.713              1.614              1.257
 Vibration    11          0.744              1.528              1.068
 Vibration    12          0.786              1.418              0.878

 Optimization completed.
    -- Stationary point found.
 Normal termination of Gaussian 16 at Fri Sep 29 16:54:15 2023.
 Gaussian 16:  ES64L-G16RevB.01 20-Dec-2017

 ---------------------------------
 # rohf/gen geom=check guess=check
 ---------------------------------

 ----------------------------------
 hexachloroethane, ROHF/cc-pVTZ-F12
 ----------------------------------
 Structure from the checkpoint file:  "c2cl6.chk"
 Charge =  0 Multiplicity = 1

                         Standard orientation:
 ---------------------------------------------------------------------
 Center     Atomic      Atomic             Coordinates (Angstroms)
 Number     Number       Type             X           Y           Z
 ---------------------------------------------------------------------
      1          6           0        0.000000    0.000000    0.794991
      2          6           0       -0.000000   -0.000000   -0.794991
      3         17           0        0.000000    1.677415    1.404628
      4         17           0       -1.452684   -0.838707    1.404628
      5         17           0        1.452684   -0.838708    1.404628
      6         17           0       -0.000000   -1.677415   -1.404628
      7         17           0       -1.452684    0.838708   -1.404628
      8         17           0        1.452684    0.838707   -1.404628
 ---------------------------------------------------------------------

 SCF Done:  E(ROHF) =  -2832.83950243     A.U. after   11 cycles

 The electronic state is 1-A1G.
 Alpha  occ. eigenvalues -- -104.87507-104.87507-104.87507-104.87507-104.87507
 Alpha  occ. eigenvalues -- -104.87507 -11.47243 -11.47195 -10.60032 -10.60032
 Alpha  occ. eigenvalues --  -10.60031 -10.60031 -10.60030 -10.60030  -8.06714
 Alpha  occ. eigenvalues --   -8.06714  -8.06714  -8.06714  -8.06714  -8.06713
 Alpha  occ. eigenvalues --   -8.06531  -8.06531  -8.06531  -8.06531  -8.06530
 Alpha  occ. eigenvalues --   -8.06530  -8.06529  -8.06529  -8.06529  -8.06529
 Alpha  occ. eigenvalues --   -8.06529  -8.06529  -1.29056  -1.21620  -1.13448
 Alpha  occ. eigenvalues --   -1.13448  -1.11304  -1.11304  -0.94153  -0.79018
 Alpha  occ. eigenvalues --   -0.68803  -0.66900  -0.66900  -0.61222  -0.61222
 Alpha  occ. eigenvalues --   -0.52162  -0.52162  -0.51020  -0.50528  -0.50528
 Alpha  occ. eigenvalues --   -0.49026  -0.49026  -0.47757  -0.47107  -0.45412
 Alpha  occ. eigenvalues --   -0.45412  -0.45012
 Alpha virt. eigenvalues --    0.03982   0.05931   0.06105   0.06105   0.07848
 Alpha virt. eigenvalues --    0.07848   0.08756   0.09582   0.10641   0.10641
 Alpha virt. eigenvalues --    0.10653   0.10653   0.12474   0.13559   0.13559

 Mulliken charges and spin densities:
               1          2
     1  C   -0.108660   0.000000
     2  C   -0.108660   0.000000
     3  Cl   0.036220   0.000000
     4  Cl   0.036220   0.000000
     5  Cl   0.036220   0.000000
     6  Cl   0.036220   0.000000
     7  Cl   0.036220   0.000000
     8  Cl   0.036220   0.000000
 Sum of Mulliken charges =  -0.00000   0.00000

 Dipole moment (field-independent basis, Debye):
    X=             -0.0000    Y=             -0.0000    Z=             -0.0000  Tot=              0.0000
 Quadrupole moment (field-independent basis, Debye-Ang):
   XX=            -85.2837   YY=            -85.2837   ZZ=            -87.5919
   XY=              0.0000   XZ=              0.0000   YZ=              0.0000

 Normal termination of Gaussian 16 at Fri Sep 29 16:55:30 2023.
