 Gaussian 16, Revision B.01,
 Gaussian 16:  ES64L-G16RevB.01 20-Dec-2017

 --------------------
 # b3lyp/gen opt freq
 --------------------

 --------------------------------
 dichloroacetylene, B3LYP/pcseg-2
 --------------------------------
 Symbolic Z-matrix:
 Charge =  0 Multiplicity = 1

 SCF Done:  E(RB3LYP) =  -996.617764653     A.U. after   11 cycles
 SCF Done:  E(RB3LYP) =  -996.617846777     A.U. after    8 cycles
 SCF Done:  E(RB3LYP) =  -996.617850968     A.U. after    7 cycles
 Optimization completed.
    -- Stationary point found.
 Normal termination of Gaussian 16 at Sat Feb 26 09:10:10 2022.

 ------------------------------------------------------------------
 #N Geom=AllCheck Guess=TCheck SCRF=Check GenChk RB3LYP/ChkBas Freq
 ------------------------------------------------------------------

 Structure from the checkpoint file:  "/wrk/irikura/Gau-22371.chk"
 --------------------------------
 dichloroacetylene, B3LYP/pcseg-2
 --------------------------------
 Charge =  0 Multiplicity = 1

                         Standard orientation:
 ---------------------------------------------------------------------
 Center     Atomic      Atomic             Coordinates (Angstroms)
 Number     Number       Type             X           Y           Z
 ---------------------------------------------------------------------
      1          6           0        0.000000    0.000000    0.599170
      2          6           0        0.000000    0.000000   -0.599170
      3         17           0        0.000000    0.000000    2.238174
      4         17           0        0.000000    0.000000   -2.238174
 ---------------------------------------------------------------------

 SCF Done:  E(RB3LYP) =  -996.617850968     A.U. after    1 cycles

 The electronic state is 1-SGG.
 Alpha  occ. eigenvalues -- -101.56642-101.56642 -10.23846 -10.23589  -9.50995
 Alpha  occ. eigenvalues --   -9.50995  -7.27232  -7.27232  -7.26244  -7.26244
 Alpha  occ. eigenvalues --   -7.26244  -7.26244  -0.92364  -0.91073  -0.75316
 Alpha  occ. eigenvalues --   -0.55236  -0.51496  -0.42396  -0.42396  -0.38585
 Alpha  occ. eigenvalues --   -0.38585  -0.27352  -0.27352
 Alpha virt. eigenvalues --   -0.00457   0.02211   0.02211   0.03514   0.08695
 Alpha virt. eigenvalues --    0.08901   0.16771   0.16771   0.20000   0.25363
 Alpha virt. eigenvalues --    0.26206   0.26206   0.33725   0.33725   0.38372

 Mulliken charges:
               1
     1  C    0.011743
     2  C    0.011743
     3  Cl  -0.011743
     4  Cl  -0.011743
 Sum of Mulliken charges =   0.00000

 Dipole moment (field-independent basis, Debye):
    X=             -0.0000    Y=              0.0000    Z=              0.0000  Tot=              0.0000
 Quadrupole moment (field-independent basis, Debye-Ang):
   XX=            -36.2262   YY=            -36.2262   ZZ=            -30.8696
   XY=              0.0000   XZ=              0.0000   YZ=              0.0000

  Exact polarizability:  25.264  -0.000  25.264  -0.000  -0.000  82.187
 Approx polarizability:  36.340  -0.000  36.340  -0.000  -0.000 138.055

                      1                      2                      3
                     PIU                    PIU                    PIG
 Frequencies --    177.8189               177.8189               369.8883
 Red. masses --     14.4199                14.4199                12.1922
 Frc consts  --      0.2686                 0.2686                 0.9828
 IR Inten    --      2.4433                 2.4433                 0.0000

                      4                      5                      6
                     PIG                    SGG                    SGU
 Frequencies --    369.8883               477.5142               993.6622
 Red. masses --     12.1922                34.5961                14.4199
 Frc consts  --      0.9828                 4.6478                 8.3886
 IR Inten    --      0.0000                 0.0000                62.7199

                      7
                     SGG
 Frequencies --   2317.4047
 Red. masses --     12.0445
 Frc consts  --     38.1104
 IR Inten    --      0.0000

 - Thermochemistry -
 -------------------
 Temperature   298.150 Kelvin.  Pressure   1.00000 Atm.
 Atom     1 has atomic number  6 and mass  12.00000

 Molecular mass:    93.93771 amu.
 Principal axes and moments of inertia in atomic units:
                           1         2         3
     Eigenvalues --     0.000001281.882371281.88237
           X           -0.00000   1.00000  -0.00000
           Y            0.00000   0.00000   1.00000
           Z            1.00000   0.00000  -0.00000
 This molecule is a prolate symmetric top.
 Rotational symmetry number  2.
 Warning -- assumption of classical behavior for rotation
           may cause significant error
 Rotational temperature (Kelvin)      0.06757
 Rotational constant (GHZ):           1.407884
 Zero-point vibrational energy      29212.8 (Joules/Mol)
                                    6.98202 (Kcal/Mol)
 Warning -- explicit consideration of   5 degrees of freedom as
           vibrations may cause significant error
 Vibrational temperatures:    255.84   255.84   532.19   532.19   687.04
          (Kelvin)           1429.66  3334.23

 Zero-point correction=                           0.011127 (Hartree/Particle)
 Thermal correction to Energy=                    0.015639
 Thermal correction to Enthalpy=                  0.016583
 Thermal correction to Gibbs Free Energy=        -0.014061
 Sum of electronic and zero-point Energies=           -996.606724
 Sum of electronic and thermal Energies=              -996.602212
 Sum of electronic and thermal Enthalpies=            -996.601268
 Sum of electronic and thermal Free Energies=         -996.631912

                     E (Thermal)             CV                S
                      KCal/Mol        Cal/Mol-Kelvin    Cal/Mol-Kelvin
 Total                    9.813             13.463             64.494
 Electronic               0.000              0.000              0.000
 Translational            0.889              2.981             39.532
 Rotational               0.592              1.987             17.287
 Vibrational              8.332              8.495              7.676
 Vibration     1          0.628              1.870              2.351
 Vibration     2          0.628              1.870              2.351
 Vibration     3          0.742              1.534              1.080
 Vibration     4          0.742              1.534              1.080
 Vibration     5          0.834              1.300              0.717

 Optimization completed.
    -- Stationary point found.
 Normal termination of Gaussian 16 at Sat Feb 26 09:10:27 2022.
