 Gaussian 16, Revision B.01,

 ---------------------------------------
 # b3lyp/gen opt freq CPHF(Grid=OneStep)
 ---------------------------------------

 ----------------------------------
 tetrachloroethylene, B3LYP/pcseg-2
 ----------------------------------
 Symbolic Z-matrix:
 Charge =  0 Multiplicity = 1

 SCF Done:  E(RB3LYP) =  -1917.14525474     A.U. after   12 cycles
 SCF Done:  E(RB3LYP) =  -1917.14525518     A.U. after    6 cycles
 Optimization completed.
    -- Stationary point found.
 Normal termination of Gaussian 16 at Sat Sep 30 19:47:46 2023.

 ------------------------------------------------------------------
 #N Geom=AllCheck Guess=TCheck SCRF=Check GenChk RB3LYP/ChkBas Freq
 ------------------------------------------------------------------

 Structure from the checkpoint file:  "c2cl4.chk"
 ----------------------------------
 tetrachloroethylene, B3LYP/pcseg-2
 ----------------------------------
 Charge =  0 Multiplicity = 1

 SCF Done:  E(RB3LYP) =  -1917.14525518     A.U. after    1 cycles

  Exact polarizability:  39.921   0.000  83.616  -0.000  -0.000  87.843
 Approx polarizability:  64.482   0.000 133.954  -0.000   0.000 137.869

                      1                      2                      3
                     AU                     B2U                    AG
 Frequencies --     97.4530               176.7693               237.3936
 Red. masses --     34.9689                31.8558                34.9445
 Frc consts  --      0.1957                 0.5865                 1.1603
 IR Inten    --      0.0000                 0.8800                 0.0000

                      4                      5                      6
                     B3U                    B1U                    B3G
 Frequencies --    291.6926               313.5166               346.0840
 Red. masses --     13.2772                28.3902                32.0621
 Frc consts  --      0.6656                 1.6441                 2.2626
 IR Inten    --      0.5967                 0.0923                 0.0000

                      7                      8                      9
                     AG                     B2G                    B1U
 Frequencies --    446.4898               548.9329               770.7003
 Red. masses --     34.6733                12.2358                14.5581
 Frc consts  --      4.0726                 2.1723                 5.0948
 IR Inten    --      0.0000                 0.0000                78.3471

                     10                     11                     12
                     B2U                    B3G                    AG
 Frequencies --    880.3153               965.8390              1610.7685
 Red. masses --     13.7888                12.5233                12.0381
 Frc consts  --      6.2958                 6.8830                18.4024
 IR Inten    --    206.3120                 0.0000                 0.0000

 - Thermochemistry -
 -------------------
 Temperature   298.150 Kelvin.  Pressure   1.00000 Atm.
 Atom     1 has atomic number  6 and mass  12.00000

 Molecular mass:   163.87541 amu.
 Principal axes and moments of inertia in atomic units:
                           1         2         3
     Eigenvalues --  1054.618621309.742672364.36129
           X            0.00000  -0.00000   1.00000
           Y            0.00000   1.00000  -0.00000
           Z            1.00000  -0.00000  -0.00000
 This molecule is an asymmetric top.
 Rotational symmetry number  4.
 Warning -- assumption of classical behavior for rotation
           may cause significant error
 Rotational temperatures (Kelvin)      0.08213     0.06613     0.03663
 Rotational constants (GHZ):           1.71127     1.37794     0.76331
 Zero-point vibrational energy      39990.9 (Joules/Mol)
                                    9.55805 (Kcal/Mol)
 Warning -- explicit consideration of   8 degrees of freedom as
           vibrations may cause significant error
 Vibrational temperatures:    140.21   254.33   341.56   419.68   451.08
          (Kelvin)            497.94   642.40   789.79  1108.87  1266.58
                             1389.63  2317.54

 Zero-point correction=                           0.015232 (Hartree/Particle)
 Thermal correction to Energy=                    0.021754
 Thermal correction to Enthalpy=                  0.022698
 Thermal correction to Gibbs Free Energy=        -0.016043
 Sum of electronic and zero-point Energies=          -1917.130023
 Sum of electronic and thermal Energies=             -1917.123501
 Sum of electronic and thermal Enthalpies=           -1917.122557
 Sum of electronic and thermal Free Energies=        -1917.161298

                     E (Thermal)             CV                S
                      KCal/Mol        Cal/Mol-Kelvin    Cal/Mol-Kelvin
 Total                   13.651             20.692             81.537
 Electronic               0.000              0.000              0.000
 Translational            0.889              2.981             41.190
 Rotational               0.889              2.981             26.815
 Vibrational             11.873             14.731             13.532
 Vibration     1          0.603              1.951              3.505
 Vibration     2          0.628              1.871              2.362
 Vibration     3          0.656              1.783              1.822
 Vibration     4          0.687              1.689              1.464
 Vibration     5          0.701              1.648              1.344
 Vibration     6          0.724              1.583              1.184
 Vibration     7          0.806              1.369              0.806
 Vibration     8          0.904              1.142              0.546

 Optimization completed.
    -- Stationary point found.
 Normal termination of Gaussian 16 at Sat Sep 30 19:49:03 2023.
 Gaussian 16:  ES64L-G16RevB.01 20-Dec-2017

 ---------------------------------
 # rohf/gen geom=check guess=check
 ---------------------------------

 -------------------------------------
 tetrachloroethylene, ROHF/cc-pVTZ-F12
 -------------------------------------
 Structure from the checkpoint file:  "c2cl4.chk"
 Charge =  0 Multiplicity = 1

                         Standard orientation:
 ---------------------------------------------------------------------
 Center     Atomic      Atomic             Coordinates (Angstroms)
 Number     Number       Type             X           Y           Z
 ---------------------------------------------------------------------
      1          6           0        0.000000    0.000000    0.669553
      2          6           0        0.000000    0.000000   -0.669553
      3         17           0        0.000000    1.453042    1.595357
      4         17           0       -0.000000   -1.453042    1.595357
      5         17           0       -0.000000   -1.453042   -1.595357
      6         17           0        0.000000    1.453042   -1.595357
 ---------------------------------------------------------------------

 SCF Done:  E(ROHF) =  -1913.80460527     A.U. after   11 cycles

 The electronic state is 1-AG.
 Alpha  occ. eigenvalues -- -104.87679-104.87679-104.87679-104.87679 -11.38968
 Alpha  occ. eigenvalues --  -11.38804 -10.60158 -10.60158 -10.60157 -10.60157
 Alpha  occ. eigenvalues --   -8.06860  -8.06859  -8.06859  -8.06859  -8.06678
 Alpha  occ. eigenvalues --   -8.06678  -8.06678  -8.06678  -8.06670  -8.06670
 Alpha  occ. eigenvalues --   -8.06670  -8.06670  -1.26339  -1.19185  -1.14055
 Alpha  occ. eigenvalues --   -1.11463  -0.98716  -0.75232  -0.67970  -0.66620
 Alpha  occ. eigenvalues --   -0.61703  -0.57565  -0.53384  -0.51257  -0.50317
 Alpha  occ. eigenvalues --   -0.49942  -0.49111  -0.48470  -0.45143  -0.36739
 Alpha virt. eigenvalues --    0.04682   0.05850   0.05922   0.07944   0.08654
 Alpha virt. eigenvalues --    0.09103   0.09984   0.10385   0.11187   0.11405
 Alpha virt. eigenvalues --    0.11520   0.12221   0.13661   0.13908   0.13917

 Mulliken charges and spin densities:
               1          2
     1  C   -0.095626   0.000000
     2  C   -0.095626   0.000000
     3  Cl   0.047813   0.000000
     4  Cl   0.047813   0.000000
     5  Cl   0.047813   0.000000
     6  Cl   0.047813   0.000000
 Sum of Mulliken charges =  -0.00000   0.00000

 Dipole moment (field-independent basis, Debye):
    X=             -0.0000    Y=              0.0000    Z=              0.0000  Tot=              0.0000
 Quadrupole moment (field-independent basis, Debye-Ang):
   XX=            -61.8849   YY=            -59.4060   ZZ=            -61.4153
   XY=             -0.0000   XZ=              0.0000   YZ=             -0.0000

 Normal termination of Gaussian 16 at Sat Sep 30 19:49:59 2023.
