 Gaussian 16, Revision B.01,
 Gaussian 16:  ES64L-G16RevB.01 20-Dec-2017

 --------------------
 # b3lyp/gen opt freq
 --------------------

 -------------------------------
 hexachloroethane, B3LYP/pcseg-2
 -------------------------------
 Symbolic Z-matrix:
 Charge =  0 Multiplicity = 1

 SCF Done:  E(RB3LYP) =  -2837.61181943     A.U. after   12 cycles
 SCF Done:  E(RB3LYP) =  -2837.61182100     A.U. after    7 cycles
 SCF Done:  E(RB3LYP) =  -2837.61182245     A.U. after    6 cycles
 Optimization completed.
    -- Stationary point found.
 Normal termination of Gaussian 16 at Thu Jun 16 14:02:54 2022.

 ------------------------------------------------------------------
 #N Geom=AllCheck Guess=TCheck SCRF=Check GenChk RB3LYP/ChkBas Freq
 ------------------------------------------------------------------

 Structure from the checkpoint file:  "/wrk/irikura/Gau-29140.chk"
 -------------------------------
 hexachloroethane, B3LYP/pcseg-2
 -------------------------------
 Charge =  0 Multiplicity = 1

                         Standard orientation:
 ---------------------------------------------------------------------
 Center     Atomic      Atomic             Coordinates (Angstroms)
 Number     Number       Type             X           Y           Z
 ---------------------------------------------------------------------
      1          6           0        0.000000    0.000000    0.794991
      2          6           0       -0.000000   -0.000000   -0.794991
      3         17           0        0.000000    1.677415    1.404628
      4         17           0       -1.452684   -0.838708    1.404628
      5         17           0        1.452684   -0.838708    1.404628
      6         17           0       -0.000000   -1.677415   -1.404628
      7         17           0       -1.452684    0.838708   -1.404628
      8         17           0        1.452684    0.838708   -1.404628
 ---------------------------------------------------------------------

 SCF Done:  E(RB3LYP) =  -2837.61182245     A.U. after    1 cycles

 The electronic state is 1-A1G.
 Alpha  occ. eigenvalues -- -101.54898-101.54898-101.54898-101.54898-101.54898
 Alpha  occ. eigenvalues -- -101.54898 -10.39727 -10.39711  -9.49424  -9.49424
 Alpha  occ. eigenvalues --   -9.49424  -9.49424  -9.49423  -9.49423  -7.25667
 Alpha  occ. eigenvalues --   -7.25667  -7.25667  -7.25667  -7.25667  -7.25667
 Alpha  occ. eigenvalues --   -7.24651  -7.24651  -7.24651  -7.24651  -7.24651
 Alpha  occ. eigenvalues --   -7.24651  -7.24640  -7.24640  -7.24640  -7.24640
 Alpha  occ. eigenvalues --   -7.24640  -7.24640  -0.99658  -0.93674  -0.86965
 Alpha  occ. eigenvalues --   -0.86965  -0.85099  -0.85099  -0.71638  -0.60651
 Alpha  occ. eigenvalues --   -0.53104  -0.52280  -0.52280  -0.47414  -0.47414
 Alpha  occ. eigenvalues --   -0.38533  -0.38533  -0.37076  -0.36388  -0.36388
 Alpha  occ. eigenvalues --   -0.35754  -0.35754  -0.35135  -0.33454  -0.32349
 Alpha  occ. eigenvalues --   -0.32349  -0.31773
 Alpha virt. eigenvalues --   -0.05547  -0.05421  -0.04669  -0.04669   0.01831
 Alpha virt. eigenvalues --    0.01831   0.06979   0.09707   0.15277   0.16725
 Alpha virt. eigenvalues --    0.16725   0.19639   0.19639   0.21916   0.22025

 Mulliken charges:
               1
     1  C    0.099544
     2  C    0.099544
     3  Cl  -0.033181
     4  Cl  -0.033181
     5  Cl  -0.033181
     6  Cl  -0.033181
     7  Cl  -0.033181
     8  Cl  -0.033181
 Sum of Mulliken charges =  -0.00000

 Dipole moment (field-independent basis, Debye):
    X=              0.0000    Y=              0.0000    Z=             -0.0000  Tot=              0.0000
 Quadrupole moment (field-independent basis, Debye-Ang):
   XX=            -85.2475   YY=            -85.2475   ZZ=            -87.4411
   XY=             -0.0000   XZ=              0.0000   YZ=              0.0000

  Exact polarizability:  96.778  -0.000  96.777  -0.000  -0.000  84.268
 Approx polarizability: 164.872   0.000 164.872   0.000   0.000 122.689

                      1                      2                      3
                     A1U                    EU                     EU
 Frequencies --     79.6617               161.8053               161.8058
 Red. masses --     34.9689                34.3122                34.3122
 Frc consts  --      0.1307                 0.5293                 0.5293
 IR Inten    --      0.0000                 0.2156                 0.2156

                      4                      5                      6
                     ?A                     ?A                     ?A
 Frequencies --    218.6475               219.3598               219.3599
 Red. masses --     34.5269                34.7768                34.7768
 Frc consts  --      0.9725                 0.9859                 0.9859
 IR Inten    --      0.0000                 0.0000                 0.0000

                      7                      8                      9
                     EU                     EU                     EG
 Frequencies --    274.4345               274.4363               330.6415
 Red. masses --     31.8026                31.8026                33.6246
 Frc consts  --      1.4112                 1.4112                 2.1658
 IR Inten    --      0.0506                 0.0507                 0.0000

                     10                     11                     12
                     EG                     A2U                    A1G
 Frequencies --    330.6437               372.8203               424.0416
 Red. masses --     33.6248                29.1391                34.1672
 Frc consts  --      2.1659                 2.3863                 3.6197
 IR Inten    --      0.0000                 0.5018                 0.0000

                     13                     14                     15
                     A2U                    EU                     EU
 Frequencies --    672.3271               738.8431               738.8492
 Red. masses --     13.8901                13.4552                13.4552
 Frc consts  --      3.6993                 4.3276                 4.3277
 IR Inten    --     62.6029               226.3105               226.2832

                     16                     17                     18
                     EG                     EG                     A1G
 Frequencies --    820.3868               820.3903               930.4440
 Red. masses --     12.3631                12.3631                12.1512
 Frc consts  --      4.9025                 4.9025                 6.1980
 IR Inten    --      0.0000                 0.0000                 0.0000

 - Thermochemistry -
 -------------------
 Temperature   298.150 Kelvin.  Pressure   1.00000 Atm.
 Atom     1 has atomic number  6 and mass  12.00000

 Molecular mass:   233.81312 amu.
 Principal axes and moments of inertia in atomic units:
                           1         2         3
     Eigenvalues --  2108.198272586.534372586.53437
           X           -0.00000   0.97822   0.20759
           Y            0.00000  -0.20759   0.97822
           Z            1.00000   0.00000  -0.00000
 This molecule is a prolate symmetric top.
 Rotational symmetry number  6.
 Warning -- assumption of classical behavior for rotation
           may cause significant error
 Rotational temperatures (Kelvin)      0.04108     0.03349     0.03349
 Rotational constants (GHZ):           0.85606     0.69774     0.69774
 Zero-point vibrational energy      46588.0 (Joules/Mol)
                                   11.13479 (Kcal/Mol)
 Warning -- explicit consideration of  12 degrees of freedom as
           vibrations may cause significant error
 Vibrational temperatures:    114.62   232.80   232.80   314.58   315.61
          (Kelvin)            315.61   394.85   394.85   475.72   475.72
                              536.41   610.10   967.33  1063.03  1063.04
                             1180.35  1180.36  1338.70

 Zero-point correction=                           0.017744 (Hartree/Particle)
 Thermal correction to Energy=                    0.027001
 Thermal correction to Enthalpy=                  0.027946
 Thermal correction to Gibbs Free Energy=        -0.016497
 Sum of electronic and zero-point Energies=          -2837.594078
 Sum of electronic and thermal Energies=             -2837.584821
 Sum of electronic and thermal Enthalpies=           -2837.583877
 Sum of electronic and thermal Free Energies=        -2837.628320

                     E (Thermal)             CV                S
                      KCal/Mol        Cal/Mol-Kelvin    Cal/Mol-Kelvin
 Total                   16.944             30.846             93.538
 Electronic               0.000              0.000              0.000
 Translational            0.889              2.981             42.250
 Rotational               0.889              2.981             27.463
 Vibrational             15.166             24.885             23.825
 Vibration     1          0.600              1.963              3.899
 Vibration     2          0.622              1.889              2.529
 Vibration     3          0.622              1.889              2.529
 Vibration     4          0.646              1.813              1.970
 Vibration     5          0.647              1.812              1.964
 Vibration     6          0.647              1.812              1.964
 Vibration     7          0.677              1.721              1.568
 Vibration     8          0.677              1.721              1.568
 Vibration     9          0.713              1.614              1.257
 Vibration    10          0.713              1.614              1.257
 Vibration    11          0.744              1.528              1.068
 Vibration    12          0.786              1.418              0.878

 Optimization completed.
    -- Stationary point found.
 Normal termination of Gaussian 16 at Thu Jun 16 14:03:54 2022.
