 Gaussian 16, Revision B.01,
 Gaussian 16:  ES64L-G16RevB.01 20-Dec-2017

 --------------------
 # b3lyp/gen opt freq
 --------------------

 ----------------------------------
 tetrachloroethylene, B3LYP/pcseg-2
 ----------------------------------
 Symbolic Z-matrix:
 Charge =  0 Multiplicity = 1

 SCF Done:  E(RB3LYP) =  -1917.14523223     A.U. after   12 cycles
 SCF Done:  E(RB3LYP) =  -1917.14525474     A.U. after    7 cycles
 Optimization completed.
    -- Stationary point found.
 Normal termination of Gaussian 16 at Wed Jun 15 20:53:18 2022.

 ------------------------------------------------------------------
 #N Geom=AllCheck Guess=TCheck SCRF=Check GenChk RB3LYP/ChkBas Freq
 ------------------------------------------------------------------

 Structure from the checkpoint file:  "/wrk/irikura/Gau-18907.chk"
 ----------------------------------
 tetrachloroethylene, B3LYP/pcseg-2
 ----------------------------------
 Charge =  0 Multiplicity = 1

                         Standard orientation:
 ---------------------------------------------------------------------
 Center     Atomic      Atomic             Coordinates (Angstroms)
 Number     Number       Type             X           Y           Z
 ---------------------------------------------------------------------
      1          6           0        0.000000    0.000000    0.669434
      2          6           0        0.000000    0.000000   -0.669434
      3         17           0        0.000000    1.453437    1.594396
      4         17           0       -0.000000   -1.453437    1.594396
      5         17           0       -0.000000   -1.453437   -1.594396
      6         17           0        0.000000    1.453437   -1.594396
 ---------------------------------------------------------------------

 SCF Done:  E(RB3LYP) =  -1917.14525474     A.U. after    1 cycles

 The electronic state is 1-AG.
 Alpha  occ. eigenvalues -- -101.55000-101.55000-101.55000-101.54999 -10.31581
 Alpha  occ. eigenvalues --  -10.31495  -9.49485  -9.49485  -9.49485  -9.49485
 Alpha  occ. eigenvalues --   -7.25693  -7.25693  -7.25693  -7.25693  -7.24757
 Alpha  occ. eigenvalues --   -7.24757  -7.24757  -7.24757  -7.24707  -7.24707
 Alpha  occ. eigenvalues --   -7.24707  -7.24707  -0.96828  -0.91492  -0.87396
 Alpha  occ. eigenvalues --   -0.85129  -0.74293  -0.57573  -0.52029  -0.51843
 Alpha  occ. eigenvalues --   -0.46054  -0.44758  -0.39298  -0.37326  -0.36213
 Alpha  occ. eigenvalues --   -0.35961  -0.35377  -0.34774  -0.31918  -0.26537
 Alpha virt. eigenvalues --   -0.04792  -0.02593  -0.02138  -0.01075   0.07963
 Alpha virt. eigenvalues --    0.10845   0.11813   0.15335   0.16762   0.20544
 Alpha virt. eigenvalues --    0.21097   0.23609   0.23870   0.24727   0.28910

 Mulliken charges:
               1
     1  C    0.088160
     2  C    0.088160
     3  Cl  -0.044080
     4  Cl  -0.044080
     5  Cl  -0.044080
     6  Cl  -0.044080
 Sum of Mulliken charges =  -0.00000

 Dipole moment (field-independent basis, Debye):
    X=              0.0000    Y=             -0.0000    Z=              0.0000  Tot=              0.0000
 Quadrupole moment (field-independent basis, Debye-Ang):
   XX=            -61.5486   YY=            -59.1427   ZZ=            -61.0601
   XY=             -0.0000   XZ=              0.0000   YZ=              0.0000

  Exact polarizability:  39.918  -0.000  83.628  -0.000  -0.000  87.784
 Approx polarizability:  64.482   0.000 133.994  -0.000  -0.000 137.768

                      1                      2                      3
                     AU                     B2U                    AG
 Frequencies --     97.4752               177.0919               237.4994
 Red. masses --     34.9689                31.8590                34.9447
 Frc consts  --      0.1958                 0.5887                 1.1613
 IR Inten    --      0.0000                 0.8828                 0.0000

                      4                      5                      6
                     B3U                    B1U                    B3G
 Frequencies --    291.4658               313.3289               346.2394
 Red. masses --     13.2772                28.3850                32.0592
 Frc consts  --      0.6646                 1.6419                 2.2644
 IR Inten    --      0.5969                 0.0937                 0.0000

                      7                      8                      9
                     AG                     B2G                    B1U
 Frequencies --    446.5760               548.8373               770.8003
 Red. masses --     34.6740                12.2360                14.5594
 Frc consts  --      4.0742                 2.1716                 5.0966
 IR Inten    --      0.0000                 0.0000                78.1777

                     10                     11                     12
                     B2U                    B3G                    AG
 Frequencies --    880.8486               966.0261              1611.7875
 Red. masses --     13.7882                12.5237                12.0380
 Frc consts  --      6.3032                 6.8859                18.4255
 IR Inten    --    206.3990                 0.0000                 0.0000

 - Thermochemistry -
 -------------------
 Temperature   298.150 Kelvin.  Pressure   1.00000 Atm.
 Atom     1 has atomic number  6 and mass  12.00000

 Molecular mass:   163.87541 amu.
 Principal axes and moments of inertia in atomic units:
                           1         2         3
     Eigenvalues --  1055.191561308.197742363.38929
           X            0.00000  -0.00000   1.00000
           Y            0.00000   1.00000  -0.00000
           Z            1.00000  -0.00000  -0.00000
 This molecule is an asymmetric top.
 Rotational symmetry number  4.
 Warning -- assumption of classical behavior for rotation
           may cause significant error
 Rotational temperatures (Kelvin)      0.08208     0.06621     0.03665
 Rotational constants (GHZ):           1.71034     1.37956     0.76362
 Zero-point vibrational energy      40003.0 (Joules/Mol)
                                    9.56094 (Kcal/Mol)
 Warning -- explicit consideration of   8 degrees of freedom as
           vibrations may cause significant error
 Vibrational temperatures:    140.25   254.80   341.71   419.35   450.81
          (Kelvin)            498.16   642.52   789.65  1109.01  1267.34
                             1389.90  2319.00

 Zero-point correction=                           0.015236 (Hartree/Particle)
 Thermal correction to Energy=                    0.021758
 Thermal correction to Enthalpy=                  0.022702
 Thermal correction to Gibbs Free Energy=        -0.016037
 Sum of electronic and zero-point Energies=          -1917.130018
 Sum of electronic and thermal Energies=             -1917.123497
 Sum of electronic and thermal Enthalpies=           -1917.122553
 Sum of electronic and thermal Free Energies=        -1917.161291

                     E (Thermal)             CV                S
                      KCal/Mol        Cal/Mol-Kelvin    Cal/Mol-Kelvin
 Total                   13.653             20.691             81.532
 Electronic               0.000              0.000              0.000
 Translational            0.889              2.981             41.190
 Rotational               0.889              2.981             26.814
 Vibrational             11.876             14.729             13.528
 Vibration     1          0.603              1.951              3.504
 Vibration     2          0.628              1.871              2.359
 Vibration     3          0.656              1.783              1.822
 Vibration     4          0.687              1.690              1.465
 Vibration     5          0.701              1.648              1.345
 Vibration     6          0.724              1.583              1.183
 Vibration     7          0.806              1.368              0.806
 Vibration     8          0.904              1.142              0.547

 Optimization completed.
    -- Stationary point found.
 Normal termination of Gaussian 16 at Wed Jun 15 20:53:42 2022.
