 Gaussian 16, Revision B.01,
 Gaussian 16:  ES64L-G16RevB.01 20-Dec-2017

 --------------------
 # b3lyp/gen opt freq
 --------------------

 -------------------------------
 pentachloroethyl, B3LYP/pcseg-2
 -------------------------------
 Symbolic Z-matrix:
 Charge =  0 Multiplicity = 2

 SCF Done:  E(UB3LYP) =  -2377.34209002     A.U. after   15 cycles
 SCF Done:  E(UB3LYP) =  -2377.34210491     A.U. after   10 cycles
 SCF Done:  E(UB3LYP) =  -2377.34210763     A.U. after    9 cycles
 Optimization completed.
    -- Stationary point found.
 Normal termination of Gaussian 16 at Thu Jun 16 18:35:32 2022.

 ------------------------------------------------------------------
 #N Geom=AllCheck Guess=TCheck SCRF=Check GenChk UB3LYP/ChkBas Freq
 ------------------------------------------------------------------

 Structure from the checkpoint file:  "/wrk/irikura/Gau-30661.chk"
 -------------------------------
 pentachloroethyl, B3LYP/pcseg-2
 -------------------------------
 Charge =  0 Multiplicity = 2

                         Standard orientation:
 ---------------------------------------------------------------------
 Center     Atomic      Atomic             Coordinates (Angstroms)
 Number     Number       Type             X           Y           Z
 ---------------------------------------------------------------------
      1          6           0        0.094451   -0.584729    0.000000
      2          6           0       -0.445493    0.811216   -0.000000
      3         17           0        1.922900   -0.548713    0.000000
      4         17           0       -0.449751   -1.475729    1.451563
      5         17           0       -0.449751   -1.475729   -1.451563
      6         17           0       -0.449751    1.710117    1.451565
      7         17           0       -0.449751    1.710117   -1.451565
 ---------------------------------------------------------------------

 SCF Done:  E(UB3LYP) =  -2377.34210763     A.U. after    1 cycles

 The electronic state is 2-A'.
 Alpha  occ. eigenvalues -- -101.56129-101.56129-101.54508-101.54508-101.53769
 Alpha  occ. eigenvalues --  -10.38872 -10.33264  -9.50589  -9.50589  -9.49033
 Alpha  occ. eigenvalues --   -9.49033  -9.48271  -7.26733  -7.26733  -7.26005
 Alpha  occ. eigenvalues --   -7.26005  -7.25793  -7.25793  -7.25276  -7.25276
 Alpha  occ. eigenvalues --   -7.24547  -7.24266  -7.24266  -7.24250  -7.24250
 Alpha  occ. eigenvalues --   -7.23519  -7.23492  -0.98526  -0.92940  -0.88043
 Alpha  occ. eigenvalues --   -0.85126  -0.84962  -0.72981  -0.59812  -0.52524
 Alpha  occ. eigenvalues --   -0.52284  -0.50775  -0.46500  -0.43595  -0.38148
 Alpha  occ. eigenvalues --   -0.37650  -0.36405  -0.36405  -0.35685  -0.35504
 Alpha  occ. eigenvalues --   -0.33401  -0.32499  -0.31951  -0.24808
 Alpha virt. eigenvalues --   -0.05629  -0.03857  -0.02992  -0.00234   0.06308
 Alpha virt. eigenvalues --    0.08748   0.11211   0.15473   0.16259   0.16894
 Alpha virt. eigenvalues --    0.20332   0.20682   0.22570   0.23813   0.24143

  Beta  occ. eigenvalues -- -101.56052-101.56052-101.54498-101.54498-101.53695
  Beta  occ. eigenvalues --  -10.38931 -10.31863  -9.50514  -9.50514  -9.49024
  Beta  occ. eigenvalues --   -9.49023  -9.48199  -7.26720  -7.26720  -7.25748
  Beta  occ. eigenvalues --   -7.25748  -7.25727  -7.25727  -7.25257  -7.25257
  Beta  occ. eigenvalues --   -7.24355  -7.24249  -7.24249  -7.24246  -7.24246
  Beta  occ. eigenvalues --   -7.23448  -7.23440  -0.97724  -0.92434  -0.87663
  Beta  occ. eigenvalues --   -0.85006  -0.84614  -0.71711  -0.58789  -0.52048
  Beta  occ. eigenvalues --   -0.51847  -0.49418  -0.46209  -0.41298  -0.37914
  Beta  occ. eigenvalues --   -0.37203  -0.36274  -0.35878  -0.35097  -0.35050
  Beta  occ. eigenvalues --   -0.33242  -0.32397  -0.31872
  Beta virt. eigenvalues --   -0.13176  -0.05415  -0.03634  -0.01439   0.00750
  Beta virt. eigenvalues --    0.07082   0.08967   0.11503   0.15539   0.16928
  Beta virt. eigenvalues --    0.17471   0.20757   0.20856   0.22844   0.24202

 Mulliken charges and spin densities:
               1          2
     1  C    0.167363  -0.032626
     2  C    0.031616   0.739706
     3  Cl  -0.072199   0.086567
     4  Cl  -0.048935   0.008609
     5  Cl  -0.048935   0.008609
     6  Cl  -0.014455   0.094568
     7  Cl  -0.014455   0.094568
 Sum of Mulliken charges =  -0.00000   1.00000

 Dipole moment (field-independent basis, Debye):
    X=             -0.4330    Y=              0.7069    Z=             -0.0000  Tot=              0.8290
 Quadrupole moment (field-independent basis, Debye-Ang):
   XX=            -74.5873   YY=            -73.6190   ZZ=            -71.8960
   XY=              0.3835   XZ=              0.0000   YZ=              0.0000

  Exact polarizability:  72.204  -1.781  81.668   0.000   0.000  92.871
 Approx polarizability: 119.185   1.755 117.915  -0.000  -0.000 154.992

                      1                      2                      3
                     A"                     A'                     A"
 Frequencies --     37.6164               128.1413               171.6017
 Red. masses --     34.9610                30.0926                33.9073
 Frc consts  --      0.0291                 0.2911                 0.5883
 IR Inten    --      0.2612                 1.1456                 0.1590

                      4                      5                      6
                     A"                     A'                     A'
 Frequencies --    228.6907               230.4796               259.9557
 Red. masses --     31.8995                34.5687                28.8910
 Frc consts  --      0.9830                 1.0819                 1.1503
 IR Inten    --      0.2600                 0.2629                 1.3800

                      7                      8                      9
                     A"                     A'                     A'
 Frequencies --    325.9436               338.4771               404.5671
 Red. masses --     32.9802                28.2459                21.8765
 Frc consts  --      2.0644                 1.9066                 2.1096
 IR Inten    --      0.8192                 0.9585                 0.3663

                     10                     11                     12
                     A'                     A'                     A'
 Frequencies --    445.7308               619.2457               721.4106
 Red. masses --     18.9332                12.9715                13.9216
 Frc consts  --      2.2163                 2.9307                 4.2688
 IR Inten    --      3.1736               173.5612               107.0131

                     13                     14                     15
                     A"                     A"                     A'
 Frequencies --    770.2695               946.4641              1112.5382
 Red. masses --     13.1611                12.9024                12.1940
 Frc consts  --      4.6007                 6.8097                 8.8926
 IR Inten    --    175.3745                73.6848                 4.7403

 - Thermochemistry -
 -------------------
 Temperature   298.150 Kelvin.  Pressure   1.00000 Atm.
 Atom     1 has atomic number  6 and mass  12.00000

 Molecular mass:   198.84426 amu.
 Principal axes and moments of inertia in atomic units:
                           1         2         3
     Eigenvalues --  1586.420661926.413122444.94116
           X           -0.20959   0.00000   0.97779
           Y            0.97779   0.00000   0.20959
           Z            0.00000   1.00000   0.00000
 This molecule is an asymmetric top.
 Rotational symmetry number  1.
 Warning -- assumption of classical behavior for rotation
           may cause significant error
 Rotational temperatures (Kelvin)      0.05460     0.04496     0.03543
 Rotational constants (GHZ):           1.13762     0.93684     0.73815
 Zero-point vibrational energy      40320.9 (Joules/Mol)
                                    9.63693 (Kcal/Mol)
 Warning -- explicit consideration of  11 degrees of freedom as
           vibrations may cause significant error
 Vibrational temperatures:     54.12   184.37   246.90   329.03   331.61
          (Kelvin)            374.02   468.96   486.99   582.08   641.31
                              890.96  1037.95  1108.25  1361.75  1600.69

 Zero-point correction=                           0.015357 (Hartree/Particle)
 Thermal correction to Energy=                    0.023590
 Thermal correction to Enthalpy=                  0.024534
 Thermal correction to Gibbs Free Energy=        -0.020650
 Sum of electronic and zero-point Energies=          -2377.326750
 Sum of electronic and thermal Energies=             -2377.318518
 Sum of electronic and thermal Enthalpies=           -2377.317574
 Sum of electronic and thermal Free Energies=        -2377.362757

                     E (Thermal)             CV                S
                      KCal/Mol        Cal/Mol-Kelvin    Cal/Mol-Kelvin
 Total                   14.803             26.326             95.097
 Electronic               0.000              0.000              1.377
 Translational            0.889              2.981             41.767
 Rotational               0.889              2.981             30.392
 Vibrational             13.025             20.365             21.561
 Vibration     1          0.594              1.982              5.381
 Vibration     2          0.611              1.925              2.974
 Vibration     3          0.626              1.877              2.418
 Vibration     4          0.651              1.797              1.889
 Vibration     5          0.652              1.794              1.875
 Vibration     6          0.668              1.746              1.662
 Vibration     7          0.710              1.624              1.280
 Vibration     8          0.719              1.599              1.219
 Vibration     9          0.770              1.460              0.946
 Vibration    10          0.805              1.370              0.809
 Vibration    11          0.979              0.991              0.418

 Optimization completed.
    -- Stationary point found.
 Normal termination of Gaussian 16 at Thu Jun 16 18:37:14 2022.
