 Gaussian 16, Revision B.01,

 ---------------------------------------
 # b3lyp/gen opt freq CPHF(Grid=OneStep)
 ---------------------------------------

 -------------------------------
 pentachloroethyl, B3LYP/pcseg-2
 -------------------------------
 Symbolic Z-matrix:
 Charge =  0 Multiplicity = 2

 SCF Done:  E(UB3LYP) =  -2377.34210763     A.U. after   15 cycles
 Optimization completed.
    -- Stationary point found.
 Normal termination of Gaussian 16 at Sat Sep 30 11:09:16 2023.

 ------------------------------------------------------------------
 #N Geom=AllCheck Guess=TCheck SCRF=Check GenChk UB3LYP/ChkBas Freq
 ------------------------------------------------------------------

 Structure from the checkpoint file:  "c2cl5.chk"
 -------------------------------
 pentachloroethyl, B3LYP/pcseg-2
 -------------------------------
 Charge =  0 Multiplicity = 2

 SCF Done:  E(UB3LYP) =  -2377.34210763     A.U. after    1 cycles

  Exact polarizability:  72.203  -1.780  81.667   0.000   0.000  92.871
 Approx polarizability: 119.185   1.755 117.915   0.000  -0.000 154.992

                      1                      2                      3
                     A"                     A'                     A"
 Frequencies --     37.5978               128.1291               171.6052
 Red. masses --     34.9610                30.0919                33.9076
 Frc consts  --      0.0291                 0.2911                 0.5883
 IR Inten    --      0.2613                 1.1458                 0.1590

                      4                      5                      6
                     A"                     A'                     A'
 Frequencies --    228.6875               230.4830               259.9584
 Red. masses --     31.8994                34.5685                28.8904
 Frc consts  --      0.9829                 1.0820                 1.1503
 IR Inten    --      0.2600                 0.2630                 1.3800

                      7                      8                      9
                     A"                     A'                     A'
 Frequencies --    325.9433               338.4832               404.5634
 Red. masses --     32.9799                28.2458                21.8746
 Frc consts  --      2.0644                 1.9067                 2.1094
 IR Inten    --      0.8191                 0.9580                 0.3664

                     10                     11                     12
                     A'                     A'                     A'
 Frequencies --    445.7250               619.2604               721.4219
 Red. masses --     18.9351                12.9716                13.9215
 Frc consts  --      2.2164                 2.9308                 4.2689
 IR Inten    --      3.1724               173.5817               107.0223

                     13                     14                     15
                     A"                     A"                     A'
 Frequencies --    770.2686               946.4765              1112.5278
 Red. masses --     13.1611                12.9024                12.1940
 Frc consts  --      4.6007                 6.8099                 8.8924
 IR Inten    --    175.3826                73.6933                 4.7372

 - Thermochemistry -
 -------------------
 Temperature   298.150 Kelvin.  Pressure   1.00000 Atm.
 Atom     1 has atomic number  6 and mass  12.00000

 Molecular mass:   198.84426 amu.
 Principal axes and moments of inertia in atomic units:
                           1         2         3
     Eigenvalues --  1586.420601926.413462444.94140
           X           -0.20959   0.00000   0.97779
           Y            0.97779   0.00000   0.20959
           Z           -0.00000   1.00000   0.00000
 This molecule is an asymmetric top.
 Rotational symmetry number  1.
 Warning -- assumption of classical behavior for rotation
           may cause significant error
 Rotational temperatures (Kelvin)      0.05460     0.04496     0.03543
 Rotational constants (GHZ):           1.13762     0.93684     0.73815
 Zero-point vibrational energy      40320.9 (Joules/Mol)
                                    9.63693 (Kcal/Mol)
 Warning -- explicit consideration of  11 degrees of freedom as
           vibrations may cause significant error
 Vibrational temperatures:     54.09   184.35   246.90   329.03   331.61
          (Kelvin)            374.02   468.96   487.00   582.08   641.30
                              890.98  1037.97  1108.24  1361.77  1600.68

 Zero-point correction=                           0.015357 (Hartree/Particle)
 Thermal correction to Energy=                    0.023590
 Thermal correction to Enthalpy=                  0.024534
 Thermal correction to Gibbs Free Energy=        -0.020650
 Sum of electronic and zero-point Energies=          -2377.326750
 Sum of electronic and thermal Energies=             -2377.318518
 Sum of electronic and thermal Enthalpies=           -2377.317574
 Sum of electronic and thermal Free Energies=        -2377.362758

                     E (Thermal)             CV                S
                      KCal/Mol        Cal/Mol-Kelvin    Cal/Mol-Kelvin
 Total                   14.803             26.326             95.098
 Electronic               0.000              0.000              1.377
 Translational            0.889              2.981             41.767
 Rotational               0.889              2.981             30.392
 Vibrational             13.025             20.365             21.562
 Vibration     1          0.594              1.982              5.382
 Vibration     2          0.611              1.925              2.974
 Vibration     3          0.626              1.877              2.418
 Vibration     4          0.651              1.797              1.889
 Vibration     5          0.652              1.794              1.875
 Vibration     6          0.668              1.746              1.662
 Vibration     7          0.710              1.624              1.280
 Vibration     8          0.719              1.599              1.219
 Vibration     9          0.770              1.460              0.946
 Vibration    10          0.805              1.370              0.809
 Vibration    11          0.979              0.991              0.418

 Optimization completed.
    -- Stationary point found.
 Normal termination of Gaussian 16 at Sat Sep 30 11:16:38 2023.
 Gaussian 16:  ES64L-G16RevB.01 20-Dec-2017

 ---------------------------------
 # rohf/gen geom=check guess=check
 ---------------------------------

 ----------------------------------
 pentachloroethyl, ROHF/cc-pVTZ-F12
 ----------------------------------
 Structure from the checkpoint file:  "c2cl5.chk"
 Charge =  0 Multiplicity = 2

                         Standard orientation:
 ---------------------------------------------------------------------
 Center     Atomic      Atomic             Coordinates (Angstroms)
 Number     Number       Type             X           Y           Z
 ---------------------------------------------------------------------
      1          6           0        0.094451   -0.584729   -0.000000
      2          6           0       -0.445493    0.811216    0.000000
      3         17           0        1.922900   -0.548713    0.000000
      4         17           0       -0.449751   -1.475729    1.451563
      5         17           0       -0.449751   -1.475729   -1.451563
      6         17           0       -0.449751    1.710117    1.451565
      7         17           0       -0.449751    1.710117   -1.451565
 ---------------------------------------------------------------------

 SCF Done:  E(ROHF) =  -2373.29311729     A.U. after   17 cycles

 The electronic state is 2-A'.
 Alpha  occ. eigenvalues -- -104.88101-104.88101-104.87425-104.87425-104.86783
 Alpha  occ. eigenvalues --  -11.46815 -11.38825 -10.60600 -10.60599 -10.59939
 Alpha  occ. eigenvalues --  -10.59939 -10.59263  -8.07303  -8.07303  -8.07127
 Alpha  occ. eigenvalues --   -8.07127  -8.07073  -8.07073  -8.06619  -8.06619
 Alpha  occ. eigenvalues --   -8.06439  -8.06439  -8.06437  -8.06437  -8.05920
 Alpha  occ. eigenvalues --   -8.05769  -8.05763  -1.27161  -1.20208  -1.14112
 Alpha  occ. eigenvalues --   -1.11395  -1.11345  -0.95017  -0.76990  -0.67832
 Alpha  occ. eigenvalues --   -0.66620  -0.63849  -0.59542  -0.55602  -0.51680
 Alpha  occ. eigenvalues --   -0.51448  -0.50199  -0.49410  -0.48683  -0.48582
 Alpha  occ. eigenvalues --   -0.46765  -0.45930  -0.45192  -0.11108
 Alpha virt. eigenvalues --    0.04308   0.05859   0.05958   0.06668   0.07944
 Alpha virt. eigenvalues --    0.08396   0.09071   0.10420   0.10516   0.11037
 Alpha virt. eigenvalues --    0.11617   0.11989   0.13573   0.13846   0.13926

 Mulliken charges and spin densities:
               1          2
     1  C   -0.164339   0.022857
     2  C   -0.087553   0.817725
     3  Cl   0.021516   0.031967
     4  Cl   0.054148   0.003202
     5  Cl   0.054148   0.003202
     6  Cl   0.061039   0.060523
     7  Cl   0.061039   0.060523
 Sum of Mulliken charges =  -0.00000   1.00000

 Dipole moment (field-independent basis, Debye):
    X=             -0.3990    Y=              0.3258    Z=             -0.0000  Tot=              0.5151
 Quadrupole moment (field-independent basis, Debye-Ang):
   XX=            -74.5321   YY=            -74.2944   ZZ=            -72.2702
   XY=              0.3618   XZ=             -0.0000   YZ=              0.0000

 Normal termination of Gaussian 16 at Sat Sep 30 11:21:29 2023.
