 Gaussian 16, Revision B.01,
 Gaussian 16:  ES64L-G16RevB.01 20-Dec-2017

 --------------------
 # b3lyp/gen opt freq
 --------------------

 --------------------------------
 difluoroacetylene, B3LYP/pcseg-2
 --------------------------------
 Symbolic Z-matrix:
 Charge =  0 Multiplicity = 1

 SCF Done:  E(RB3LYP) =  -275.867768275     A.U. after   10 cycles
 SCF Done:  E(RB3LYP) =  -275.867778913     A.U. after    6 cycles
 Optimization completed.
    -- Stationary point found.
 Normal termination of Gaussian 16 at Fri Feb 25 20:50:32 2022.

 ------------------------------------------------------------------
 #N Geom=AllCheck Guess=TCheck SCRF=Check GenChk RB3LYP/ChkBas Freq
 ------------------------------------------------------------------

 Structure from the checkpoint file:  "/wrk/irikura/Gau-23707.chk"
 --------------------------------
 difluoroacetylene, B3LYP/pcseg-2
 --------------------------------
 Charge =  0 Multiplicity = 1

                         Standard orientation:
 ---------------------------------------------------------------------
 Center     Atomic      Atomic             Coordinates (Angstroms)
 Number     Number       Type             X           Y           Z
 ---------------------------------------------------------------------
      1          6           0        0.000000    0.000000    0.591394
      2          6           0        0.000000    0.000000   -0.591394
      3          9           0        0.000000    0.000000    1.876653
      4          9           0        0.000000    0.000000   -1.876653
 ---------------------------------------------------------------------

 SCF Done:  E(RB3LYP) =  -275.867778913     A.U. after    1 cycles

 The electronic state is 1-SGG.
 Alpha  occ. eigenvalues --  -24.76134 -24.76134 -10.27930 -10.27641  -1.30361
 Alpha  occ. eigenvalues --   -1.30227  -0.79629  -0.65372  -0.62428  -0.53900
 Alpha  occ. eigenvalues --   -0.53900  -0.51808  -0.51808  -0.29701  -0.29701
 Alpha virt. eigenvalues --    0.01001   0.03020   0.07415   0.07415   0.14710
 Alpha virt. eigenvalues --    0.15057   0.15057   0.20753   0.23605   0.23605
 Alpha virt. eigenvalues --    0.29161   0.35325   0.50471   0.50471   0.51248

 Mulliken charges:
               1
     1  C    0.197065
     2  C    0.197065
     3  F   -0.197065
     4  F   -0.197065
 Sum of Mulliken charges =  -0.00000

 Dipole moment (field-independent basis, Debye):
    X=             -0.0000    Y=             -0.0000    Z=              0.0000  Tot=              0.0000
 Quadrupole moment (field-independent basis, Debye-Ang):
   XX=            -20.4279   YY=            -20.4279   ZZ=            -21.2772
   XY=              0.0000   XZ=              0.0000   YZ=              0.0000

  Exact polarizability:  14.110   0.000  14.110   0.000   0.000  33.730
 Approx polarizability:  17.689  -0.000  17.689  -0.000  -0.000  58.731

                      1                      2                      3
                     PIU                    PIU                    PIG
 Frequencies --    282.0369               282.0369               313.0579
 Red. masses --     13.9958                13.9958                12.2667
 Frc consts  --      0.6559                 0.6559                 0.7083
 IR Inten    --      0.0009                 0.0009                 0.0000

                      4                      5                      6
                     PIG                    SGG                    SGU
 Frequencies --    313.0579               796.0535              1361.4949
 Red. masses --     12.2667                18.7124                13.9958
 Frc consts  --      0.7083                 6.9866                15.2855
 IR Inten    --      0.0000                 0.0000               346.8543

                      7
                     SGG
 Frequencies --   2549.7741
 Red. masses --     12.1170
 Frc consts  --     46.4138
 IR Inten    --      0.0000

 - Thermochemistry -
 -------------------
 Temperature   298.150 Kelvin.  Pressure   1.00000 Atm.
 Atom     1 has atomic number  6 and mass  12.00000

 Molecular mass:    61.99681 amu.
 Principal axes and moments of inertia in atomic units:
                           1         2         3
     Eigenvalues --     0.00000 507.84870 507.84870
           X           -0.00000   1.00000  -0.00000
           Y            0.00000   0.00000   1.00000
           Z            1.00000   0.00000  -0.00000
 This molecule is a prolate symmetric top.
 Rotational symmetry number  2.
 Warning -- assumption of classical behavior for rotation
           may cause significant error
 Rotational temperature (Kelvin)      0.17055
 Rotational constant (GHZ):           3.553699
 Zero-point vibrational energy      35275.0 (Joules/Mol)
                                    8.43092 (Kcal/Mol)
 Warning -- explicit consideration of   4 degrees of freedom as
           vibrations may cause significant error
 Vibrational temperatures:    405.79   405.79   450.42   450.42  1145.34
          (Kelvin)           1958.89  3668.56

 Zero-point correction=                           0.013436 (Hartree/Particle)
 Thermal correction to Energy=                    0.017579
 Thermal correction to Enthalpy=                  0.018523
 Thermal correction to Gibbs Free Energy=        -0.009846
 Sum of electronic and zero-point Energies=           -275.854343
 Sum of electronic and thermal Energies=              -275.850200
 Sum of electronic and thermal Enthalpies=            -275.849256
 Sum of electronic and thermal Free Energies=         -275.877625

                     E (Thermal)             CV                S
                      KCal/Mol        Cal/Mol-Kelvin    Cal/Mol-Kelvin
 Total                   11.031             12.459             59.706
 Electronic               0.000              0.000              0.000
 Translational            0.889              2.981             38.293
 Rotational               0.592              1.987             15.447
 Vibrational              9.550              7.491              5.967
 Vibration     1          0.681              1.707              1.521
 Vibration     2          0.681              1.707              1.521
 Vibration     3          0.701              1.649              1.346
 Vibration     4          0.701              1.649              1.346

 Optimization completed.
    -- Stationary point found.
 Normal termination of Gaussian 16 at Fri Feb 25 20:50:47 2022.
