 Gaussian 16, Revision B.01,
 Gaussian 16:  ES64L-G16RevB.01 20-Dec-2017

 --------------------
 # b3lyp/gen opt freq
 --------------------

 -------------------
 C2F4, B3LYP/pcseg-2
 -------------------
 Symbolic Z-matrix:
 Charge =  0 Multiplicity = 1

 SCF Done:  E(RB3LYP) =  -475.712681077     A.U. after   10 cycles
 SCF Done:  E(RB3LYP) =  -475.723710162     A.U. after   10 cycles
 SCF Done:  E(RB3LYP) =  -475.724090484     A.U. after    9 cycles
 SCF Done:  E(RB3LYP) =  -475.724096633     A.U. after    6 cycles
 SCF Done:  E(RB3LYP) =  -475.724097076     A.U. after    6 cycles
 Optimization completed.
    -- Stationary point found.
 Normal termination of Gaussian 16 at Wed Feb  2 18:10:04 2022.

 ------------------------------------------------------------------
 #N Geom=AllCheck Guess=TCheck SCRF=Check GenChk RB3LYP/ChkBas Freq
 ------------------------------------------------------------------

 Structure from the checkpoint file:  "/wrk/irikura/Gau-16096.chk"
 -------------------
 C2F4, B3LYP/pcseg-2
 -------------------
 Charge =  0 Multiplicity = 1

                         Standard orientation:
 ---------------------------------------------------------------------
 Center     Atomic      Atomic             Coordinates (Angstroms)
 Number     Number       Type             X           Y           Z
 ---------------------------------------------------------------------
      1          6           0        0.000000    0.000000    0.660250
      2          6           0        0.000000    0.000000   -0.660250
      3          9           0        0.000000    1.100857    1.387445
      4          9           0       -0.000000   -1.100857    1.387445
      5          9           0        0.000000    1.100857   -1.387445
      6          9           0       -0.000000   -1.100857   -1.387445
 ---------------------------------------------------------------------

 SCF Done:  E(RB3LYP) =  -475.724097076     A.U. after    1 cycles

 The electronic state is 1-AG.
 Alpha  occ. eigenvalues --  -24.74548 -24.74547 -24.74547 -24.74547 -10.37096
 Alpha  occ. eigenvalues --  -10.36998  -1.32540  -1.31143  -1.26877  -1.25795
 Alpha  occ. eigenvalues --   -0.82385  -0.68106  -0.63845  -0.63054  -0.58698
 Alpha  occ. eigenvalues --   -0.57614  -0.53317  -0.50610  -0.48434  -0.47805
 Alpha  occ. eigenvalues --   -0.47392  -0.46931  -0.45437  -0.27693
 Alpha virt. eigenvalues --    0.01216   0.03559   0.03813   0.06429   0.13675
 Alpha virt. eigenvalues --    0.16052   0.18253   0.19411   0.19692   0.20370
 Alpha virt. eigenvalues --    0.24318   0.35448   0.38121   0.39198   0.40631

 Mulliken charges:
               1
     1  C    0.462671
     2  C    0.462671
     3  F   -0.231335
     4  F   -0.231335
     5  F   -0.231335
     6  F   -0.231335
 Sum of Mulliken charges =  -0.00000

 Dipole moment (field-independent basis, Debye):
    X=              0.0000    Y=             -0.0000    Z=              0.0000  Tot=              0.0000
 Quadrupole moment (field-independent basis, Debye-Ang):
   XX=            -29.4697   YY=            -32.7451   ZZ=            -32.5231
   XY=             -0.0000   XZ=              0.0000   YZ=             -0.0000

  Exact polarizability:  18.179  -0.000  26.504  -0.000  -0.000  35.537
 Approx polarizability:  24.565   0.000  36.512  -0.000  -0.000  53.418

                      1                      2                      3
                     AU                     B2U                    AG
 Frequencies --    199.3018               212.4332               398.6397
 Red. masses --     18.9984                18.1586                18.9445
 Frc consts  --      0.4446                 0.4828                 1.7738
 IR Inten    --      0.0000                 5.0633                 0.0000

                      4                      5                      6
                     B3U                    B1U                    B3G
 Frequencies --    414.4215               553.3729               553.7758
 Red. masses --     13.1639                17.4671                17.4107
 Frc consts  --      1.3320                 3.1514                 3.1458
 IR Inten    --      3.1285                 2.1434                 0.0000

                      7                      8                      9
                     B2G                    AG                     B1U
 Frequencies --    555.2628               793.9935              1183.6377
 Red. masses --     12.3025                18.6008                14.0152
 Frc consts  --      2.2348                 6.9090                11.5688
 IR Inten    --      0.0000                 0.0000               400.1026

                     10                     11                     12
                     B2U                    B3G                    AG
 Frequencies --   1321.2793              1324.2955              1906.2164
 Red. masses --     13.5996                12.9462                12.1864
 Frc consts  --     13.9884                13.3771                26.0898
 IR Inten    --    446.2422                 0.0000                 0.0000

 - Thermochemistry -
 -------------------
 Temperature   298.150 Kelvin.  Pressure   1.00000 Atm.
 Atom     1 has atomic number  6 and mass  12.00000

 Molecular mass:    99.99361 amu.
 Principal axes and moments of inertia in atomic units:
                           1         2         3
     Eigenvalues --   328.87939 559.76550 888.64489
           X            0.00000   0.00000   1.00000
           Y            0.00000   1.00000  -0.00000
           Z            1.00000  -0.00000  -0.00000
 This molecule is an asymmetric top.
 Rotational symmetry number  4.
 Rotational temperatures (Kelvin)      0.26336     0.15473     0.09747
 Rotational constants (GHZ):           5.48755     3.22410     2.03089
 Zero-point vibrational energy      56324.0 (Joules/Mol)
                                   13.46175 (Kcal/Mol)
 Warning -- explicit consideration of   7 degrees of freedom as
           vibrations may cause significant error
 Vibrational temperatures:    286.75   305.64   573.55   596.26   796.18
          (Kelvin)            796.76   798.90  1142.38  1702.99  1901.03
                             1905.37  2742.62

 Zero-point correction=                           0.021453 (Hartree/Particle)
 Thermal correction to Energy=                    0.026675
 Thermal correction to Enthalpy=                  0.027619
 Thermal correction to Gibbs Free Energy=        -0.006359
 Sum of electronic and zero-point Energies=           -475.702644
 Sum of electronic and thermal Energies=              -475.697422
 Sum of electronic and thermal Enthalpies=            -475.696478
 Sum of electronic and thermal Free Energies=         -475.730456

                     E (Thermal)             CV                S
                      KCal/Mol        Cal/Mol-Kelvin    Cal/Mol-Kelvin
 Total                   16.739             17.096             71.514
 Electronic               0.000              0.000              0.000
 Translational            0.889              2.981             39.718
 Rotational               0.889              2.981             23.840
 Vibrational             14.962             11.135              7.956
 Vibration     1          0.637              1.841              2.140
 Vibration     2          0.643              1.822              2.023
 Vibration     3          0.765              1.473              0.968
 Vibration     4          0.778              1.439              0.911
 Vibration     5          0.909              1.132              0.537
 Vibration     6          0.909              1.131              0.536
 Vibration     7          0.911              1.128              0.533

 Optimization completed.
    -- Stationary point found.
 Normal termination of Gaussian 16 at Wed Feb  2 18:12:17 2022.
