 Gaussian 16, Revision B.01,

 ---------------------------------------
 # b3lyp/gen opt freq CPHF(Grid=OneStep)
 ---------------------------------------

 -------------------
 C2F4, B3LYP/pcseg-2
 -------------------
 Symbolic Z-matrix:
 Charge =  0 Multiplicity = 1

 SCF Done:  E(RB3LYP) =  -475.724097076     A.U. after   10 cycles
 Optimization completed.
    -- Stationary point found.
 Normal termination of Gaussian 16 at Sat Sep 30 12:52:18 2023.

 ------------------------------------------------------------------
 #N Geom=AllCheck Guess=TCheck SCRF=Check GenChk RB3LYP/ChkBas Freq
 ------------------------------------------------------------------

 Structure from the checkpoint file:  "c2f4.chk"
 -------------------
 C2F4, B3LYP/pcseg-2
 -------------------
 Charge =  0 Multiplicity = 1

 SCF Done:  E(RB3LYP) =  -475.724097076     A.U. after    1 cycles

  Exact polarizability:  18.181   0.000  26.504  -0.000  -0.000  35.537
 Approx polarizability:  24.565   0.000  36.512  -0.000   0.000  53.418

                      1                      2                      3
                     AU                     B2U                    AG
 Frequencies --    199.3024               212.4297               398.6402
 Red. masses --     18.9984                18.1586                18.9445
 Frc consts  --      0.4446                 0.4828                 1.7738
 IR Inten    --      0.0000                 5.0625                 0.0000

                      4                      5                      6
                     B3U                    B1U                    B3G
 Frequencies --    414.4023               553.3738               553.7768
 Red. masses --     13.1639                17.4671                17.4106
 Frc consts  --      1.3319                 3.1514                 3.1458
 IR Inten    --      3.1248                 2.1435                 0.0000

                      7                      8                      9
                     B2G                    AG                     B1U
 Frequencies --    555.2542               793.9926              1183.6519
 Red. masses --     12.3025                18.6008                14.0152
 Frc consts  --      2.2347                 6.9090                11.5691
 IR Inten    --      0.0000                 0.0000               400.1065

                     10                     11                     12
                     B2U                    B3G                    AG
 Frequencies --   1321.2862              1324.3290              1906.1913
 Red. masses --     13.5996                12.9462                12.1864
 Frc consts  --     13.9885                13.3778                26.0891
 IR Inten    --    446.2433                 0.0000                 0.0000

 - Thermochemistry -
 -------------------
 Temperature   298.150 Kelvin.  Pressure   1.00000 Atm.
 Atom     1 has atomic number  6 and mass  12.00000

 Molecular mass:    99.99361 amu.
 Principal axes and moments of inertia in atomic units:
                           1         2         3
     Eigenvalues --   328.87938 559.76549 888.64487
           X            0.00000   0.00000   1.00000
           Y            0.00000   1.00000  -0.00000
           Z            1.00000  -0.00000  -0.00000
 This molecule is an asymmetric top.
 Rotational symmetry number  4.
 Rotational temperatures (Kelvin)      0.26336     0.15473     0.09747
 Rotational constants (GHZ):           5.48755     3.22410     2.03089
 Zero-point vibrational energy      56324.0 (Joules/Mol)
                                   13.46175 (Kcal/Mol)
 Warning -- explicit consideration of   7 degrees of freedom as
           vibrations may cause significant error
 Vibrational temperatures:    286.75   305.64   573.55   596.23   796.18
          (Kelvin)            796.76   798.89  1142.38  1703.01  1901.04
                             1905.41  2742.58

 Zero-point correction=                           0.021453 (Hartree/Particle)
 Thermal correction to Energy=                    0.026675
 Thermal correction to Enthalpy=                  0.027619
 Thermal correction to Gibbs Free Energy=        -0.006359
 Sum of electronic and zero-point Energies=           -475.702644
 Sum of electronic and thermal Energies=              -475.697422
 Sum of electronic and thermal Enthalpies=            -475.696478
 Sum of electronic and thermal Free Energies=         -475.730456

                     E (Thermal)             CV                S
                      KCal/Mol        Cal/Mol-Kelvin    Cal/Mol-Kelvin
 Total                   16.739             17.096             71.514
 Electronic               0.000              0.000              0.000
 Translational            0.889              2.981             39.718
 Rotational               0.889              2.981             23.840
 Vibrational             14.962             11.135              7.956
 Vibration     1          0.637              1.841              2.140
 Vibration     2          0.643              1.822              2.023
 Vibration     3          0.765              1.473              0.968
 Vibration     4          0.778              1.439              0.911
 Vibration     5          0.909              1.132              0.537
 Vibration     6          0.909              1.131              0.536
 Vibration     7          0.911              1.128              0.533

 Optimization completed.
    -- Stationary point found.
 Normal termination of Gaussian 16 at Sat Sep 30 12:53:26 2023.
 Gaussian 16:  ES64L-G16RevB.01 20-Dec-2017

 ---------------------------------
 # rohf/gen geom=check guess=check
 ---------------------------------

 ----------------------
 C2F4, ROHF/cc-pVTZ-F12
 ----------------------
 Structure from the checkpoint file:  "c2f4.chk"
 Charge =  0 Multiplicity = 1

                         Standard orientation:
 ---------------------------------------------------------------------
 Center     Atomic      Atomic             Coordinates (Angstroms)
 Number     Number       Type             X           Y           Z
 ---------------------------------------------------------------------
      1          6           0        0.000000    0.000000    0.660250
      2          6           0        0.000000    0.000000   -0.660250
      3          9           0        0.000000    1.100857    1.387445
      4          9           0       -0.000000   -1.100857    1.387445
      5          9           0        0.000000    1.100857   -1.387445
      6          9           0       -0.000000   -1.100857   -1.387445
 ---------------------------------------------------------------------

 SCF Done:  E(ROHF) =  -473.640546682     A.U. after   10 cycles

 The electronic state is 1-AG.
 Alpha  occ. eigenvalues --  -26.36780 -26.36780 -26.36778 -26.36778 -11.44769
 Alpha  occ. eigenvalues --  -11.44591  -1.72947  -1.71411  -1.66763  -1.65725
 Alpha  occ. eigenvalues --   -1.10448  -0.91910  -0.86597  -0.84425  -0.80642
 Alpha  occ. eigenvalues --   -0.79129  -0.76499  -0.74056  -0.71809  -0.71134
 Alpha  occ. eigenvalues --   -0.69834  -0.68215  -0.67802  -0.40703
 Alpha virt. eigenvalues --    0.05462   0.05472   0.06948   0.07162   0.09212
 Alpha virt. eigenvalues --    0.09481   0.09725   0.17143   0.17175   0.18856
 Alpha virt. eigenvalues --    0.19014   0.20888   0.21019   0.23172   0.23377

 Mulliken charges and spin densities:
               1          2
     1  C    0.617032   0.000000
     2  C    0.617032   0.000000
     3  F   -0.308516   0.000000
     4  F   -0.308516   0.000000
     5  F   -0.308516   0.000000
     6  F   -0.308516   0.000000
 Sum of Mulliken charges =   0.00000   0.00000

 Dipole moment (field-independent basis, Debye):
    X=              0.0000    Y=              0.0000    Z=              0.0000  Tot=              0.0000
 Quadrupole moment (field-independent basis, Debye-Ang):
   XX=            -29.1078   YY=            -32.8906   ZZ=            -32.5653
   XY=             -0.0000   XZ=              0.0000   YZ=             -0.0000

 Normal termination of Gaussian 16 at Sat Sep 30 12:53:56 2023.
