 Gaussian 16, Revision B.01,
 Gaussian 16:  ES64L-G16RevB.01 20-Dec-2017

 --------------------
 # b3lyp/gen opt freq
 --------------------

 -------------------------------
 hexafluoroethane, B3LYP/pcseg-2
 -------------------------------
 Symbolic Z-matrix:
 Charge =  0 Multiplicity = 1

 SCF Done:  E(RB3LYP) =  -675.566207314     A.U. after   10 cycles
 SCF Done:  E(RB3LYP) =  -675.566378071     A.U. after    8 cycles
 SCF Done:  E(RB3LYP) =  -675.566391657     A.U. after    7 cycles
 Optimization completed.
    -- Stationary point found.
 Normal termination of Gaussian 16 at Thu Jun 16 14:04:28 2022.

 ------------------------------------------------------------------
 #N Geom=AllCheck Guess=TCheck SCRF=Check GenChk RB3LYP/ChkBas Freq
 ------------------------------------------------------------------

 Structure from the checkpoint file:  "/wrk/irikura/Gau-31538.chk"
 -------------------------------
 hexafluoroethane, B3LYP/pcseg-2
 -------------------------------
 Charge =  0 Multiplicity = 1

                         Standard orientation:
 ---------------------------------------------------------------------
 Center     Atomic      Atomic             Coordinates (Angstroms)
 Number     Number       Type             X           Y           Z
 ---------------------------------------------------------------------
      1          6           0        0.000000    0.000000    0.778930
      2          6           0       -0.000000   -0.000000   -0.778930
      3          9           0        0.000000    1.254610    1.231444
      4          9           0       -1.086524   -0.627305    1.231444
      5          9           0        1.086524   -0.627305    1.231444
      6          9           0       -0.000000   -1.254610   -1.231444
      7          9           0       -1.086524    0.627305   -1.231444
      8          9           0        1.086524    0.627305   -1.231444
 ---------------------------------------------------------------------

 SCF Done:  E(RB3LYP) =  -675.566391657     A.U. after    1 cycles

 The electronic state is 1-A1G.
 Alpha  occ. eigenvalues --  -24.75284 -24.75284 -24.75284 -24.75284 -24.75284
 Alpha  occ. eigenvalues --  -24.75284 -10.47752 -10.47733  -1.37441  -1.35145
 Alpha  occ. eigenvalues --   -1.27963  -1.27963  -1.26963  -1.26963  -0.81707
 Alpha  occ. eigenvalues --   -0.72254  -0.67161  -0.65511  -0.65511  -0.62682
 Alpha  occ. eigenvalues --   -0.62682  -0.53161  -0.51987  -0.51987  -0.50922
 Alpha  occ. eigenvalues --   -0.50922  -0.49107  -0.49107  -0.46690  -0.46690
 Alpha  occ. eigenvalues --   -0.46073  -0.45374  -0.41449
 Alpha virt. eigenvalues --    0.05126   0.05126   0.06839   0.09414   0.16710
 Alpha virt. eigenvalues --    0.16710   0.17469   0.17469   0.17687   0.18547
 Alpha virt. eigenvalues --    0.19103   0.21957   0.23963   0.23963   0.32004

 Mulliken charges:
               1
     1  C    0.709919
     2  C    0.709919
     3  F   -0.236640
     4  F   -0.236640
     5  F   -0.236640
     6  F   -0.236640
     7  F   -0.236640
     8  F   -0.236640
 Sum of Mulliken charges =   0.00000

 Dipole moment (field-independent basis, Debye):
    X=              0.0000    Y=             -0.0000    Z=             -0.0000  Tot=              0.0000
 Quadrupole moment (field-independent basis, Debye-Ang):
   XX=            -42.3044   YY=            -42.3044   ZZ=            -41.9802
   XY=             -0.0000   XZ=             -0.0000   YZ=             -0.0000

  Exact polarizability:  29.521   0.000  29.522  -0.000  -0.000  29.136
 Approx polarizability:  40.727   0.000  40.727  -0.000   0.000  34.524

                      1                      2                      3
                     A1U                    EU                     EU
 Frequencies --     67.1162               215.4498               215.4513
 Red. masses --     18.9984                18.6522                18.6523
 Frc consts  --      0.0504                 0.5101                 0.5101
 IR Inten    --      0.0000                 2.6659                 2.6656

                      4                      5                      6
                     A1G                    EG                     EG
 Frequencies --    342.0283               374.5355               374.5364
 Red. masses --     18.5478                18.7309                18.7310
 Frc consts  --      1.2784                 1.5481                 1.5481
 IR Inten    --      0.0000                 0.0000                 0.0000

                      7                      8                      9
                     EU                     EU                     EG
 Frequencies --    516.1051               516.1057               609.3163
 Red. masses --     18.2662                18.2662                18.0601
 Frc consts  --      2.8667                 2.8667                 3.9505
 IR Inten    --      3.6704                 3.6699                 0.0000

                     10                     11                     12
                     EG                     A2U                    A1G
 Frequencies --    609.3176               707.8015               799.5590
 Red. masses --     18.0601                17.0912                18.2144
 Frc consts  --      3.9505                 5.0448                 6.8606
 IR Inten    --      0.0000                35.0620                 0.0000

                     13                     14                     15
                     A2U                    EG                     EG
 Frequencies --   1105.8434              1207.1522              1207.1578
 Red. masses --     13.8657                12.7822                12.7821
 Frc consts  --      9.9903                10.9743                10.9744
 IR Inten    --    299.3398                 0.0000                 0.0000

                     16                     17                     18
                     EU                     EU                     A1G
 Frequencies --   1221.5537              1221.5744              1379.4463
 Red. masses --     13.3498                13.3498                12.5331
 Frc consts  --     11.7368                11.7372                14.0513
 IR Inten    --    579.9415               579.9445                 0.0000

 - Thermochemistry -
 -------------------
 Temperature   298.150 Kelvin.  Pressure   1.00000 Atm.
 Atom     1 has atomic number  6 and mass  12.00000

 Molecular mass:   137.99042 amu.
 Principal axes and moments of inertia in atomic units:
                           1         2         3
     Eigenvalues --   640.74271 989.67066 989.67066
           X           -0.00000   0.86378   0.50387
           Y            0.00000  -0.50387   0.86378
           Z            1.00000   0.00000   0.00000
 This molecule is a prolate symmetric top.
 Rotational symmetry number  6.
 Warning -- assumption of classical behavior for rotation
           may cause significant error
 Rotational temperatures (Kelvin)      0.13518     0.08752     0.08752
 Rotational constants (GHZ):           2.81664     1.82358     1.82358
 Zero-point vibrational energy      75903.4 (Joules/Mol)
                                   18.14134 (Kcal/Mol)
 Warning -- explicit consideration of  10 degrees of freedom as
           vibrations may cause significant error
 Vibrational temperatures:     96.57   309.98   309.99   492.10   538.87
          (Kelvin)            538.87   742.56   742.56   876.67   876.67
                             1018.37  1150.39  1591.06  1736.82  1736.83
                             1757.54  1757.57  1984.72

 Zero-point correction=                           0.028910 (Hartree/Particle)
 Thermal correction to Energy=                    0.035675
 Thermal correction to Enthalpy=                  0.036619
 Thermal correction to Gibbs Free Energy=        -0.001130
 Sum of electronic and zero-point Energies=           -675.537482
 Sum of electronic and thermal Energies=              -675.530717
 Sum of electronic and thermal Enthalpies=            -675.529773
 Sum of electronic and thermal Free Energies=         -675.567522

                     E (Thermal)             CV                S
                      KCal/Mol        Cal/Mol-Kelvin    Cal/Mol-Kelvin
 Total                   22.386             23.297             79.450
 Electronic               0.000              0.000              0.000
 Translational            0.889              2.981             40.678
 Rotational               0.889              2.981             24.370
 Vibrational             20.609             17.335             14.402
 Vibration     1          0.598              1.970              4.236
 Vibration     2          0.645              1.817              1.997
 Vibration     3          0.645              1.817              1.997
 Vibration     4          0.721              1.591              1.203
 Vibration     5          0.746              1.524              1.061
 Vibration     6          0.746              1.524              1.061
 Vibration     7          0.871              1.214              0.619
 Vibration     8          0.871              1.214              0.619
 Vibration     9          0.968              1.012              0.434
 Vibration    10          0.968              1.012              0.434

 Optimization completed.
    -- Stationary point found.
 Normal termination of Gaussian 16 at Thu Jun 16 14:05:30 2022.
