 Gaussian 16, Revision B.01,
 Gaussian 16:  ES64L-G16RevB.01 20-Dec-2017

 --------------------
 # b3lyp/gen opt freq
 --------------------

 ------------------------
 Acetylene, B3LYP/pcseg-2
 ------------------------
 Symbolic Z-matrix:
 Charge =  0 Multiplicity = 1

 SCF Done:  E(RB3LYP) =  -77.3597721123     A.U. after    8 cycles
 SCF Done:  E(RB3LYP) =  -77.3661399429     A.U. after    9 cycles
 SCF Done:  E(RB3LYP) =  -77.3661415405     A.U. after    5 cycles
 Optimization completed.
    -- Stationary point found.
 Normal termination of Gaussian 16 at Mon Feb  7 16:27:35 2022.

 ------------------------------------------------------------------
 #N Geom=AllCheck Guess=TCheck SCRF=Check GenChk RB3LYP/ChkBas Freq
 ------------------------------------------------------------------

 Structure from the checkpoint file:  "/wrk/irikura/Gau-21961.chk"
 ------------------------
 Acetylene, B3LYP/pcseg-2
 ------------------------
 Charge =  0 Multiplicity = 1

                         Standard orientation:
 ---------------------------------------------------------------------
 Center     Atomic      Atomic             Coordinates (Angstroms)
 Number     Number       Type             X           Y           Z
 ---------------------------------------------------------------------
      1          1           0        0.000000    0.000000    1.660043
      2          6           0        0.000000    0.000000    0.598175
      3          6           0        0.000000    0.000000   -0.598175
      4          1           0        0.000000    0.000000   -1.660043
 ---------------------------------------------------------------------

 SCF Done:  E(RB3LYP) =  -77.3661415405     A.U. after    1 cycles

 The electronic state is 1-SGG.
 Alpha  occ. eigenvalues --  -10.18306 -10.18039  -0.75960  -0.57395  -0.50520
 Alpha  occ. eigenvalues --   -0.30172  -0.30172
 Alpha virt. eigenvalues --    0.01756   0.01756   0.03694   0.04146   0.13686
 Alpha virt. eigenvalues --    0.16850   0.16850   0.20732   0.23929   0.27071
 Alpha virt. eigenvalues --    0.27071   0.34046   0.47070   0.62365   0.70611

 Mulliken charges:
               1
     1  H    0.055764
     2  C   -0.055764
     3  C   -0.055764
     4  H    0.055764
 Sum of Mulliken charges =  -0.00000

 Dipole moment (field-independent basis, Debye):
    X=              0.0000    Y=             -0.0000    Z=             -0.0000  Tot=              0.0000
 Quadrupole moment (field-independent basis, Debye-Ang):
   XX=            -13.7624   YY=            -13.7624   ZZ=             -7.1355
   XY=             -0.0000   XZ=             -0.0000   YZ=              0.0000

  Exact polarizability:  13.862   0.000  13.862   0.000   0.000  31.075
 Approx polarizability:  17.208  -0.000  17.208  -0.000  -0.000  54.972

                      1                      2                      3
                     PIG                    PIG                    PIU
 Frequencies --    666.2447               666.2447               767.4578
 Red. masses --      1.5742                 1.5742                 1.0848
 Frc consts  --      0.4117                 0.4117                 0.3765
 IR Inten    --      0.0000                 0.0000               105.9046

                      4                      5                      6
                     PIU                    SGG                    SGU
 Frequencies --    767.4578              2069.7087              3418.3726
 Red. masses --      1.0848                 3.8207                 1.0848
 Frc consts  --      0.3765                 9.6430                 7.4687
 IR Inten    --    105.9046                 0.0000                89.7430

                      7
                     SGG
 Frequencies --   3515.6820
 Red. masses --      1.2287
 Frc consts  --      8.9481
 IR Inten    --      0.0000

 - Thermochemistry -
 -------------------
 Temperature   298.150 Kelvin.  Pressure   1.00000 Atm.
 Atom     1 has atomic number  1 and mass   1.00783

 Molecular mass:    26.01565 amu.
 Principal axes and moments of inertia in atomic units:
                           1         2         3
     Eigenvalues --     0.00000  50.50248  50.50248
           X           -0.00000   1.00000  -0.00000
           Y            0.00000   0.00000   1.00000
           Z            1.00000   0.00000  -0.00000
 This molecule is a prolate symmetric top.
 Rotational symmetry number  2.
 Rotational temperature (Kelvin)      1.71504
 Rotational constant (GHZ):          35.735695
 Zero-point vibrational energy      71005.4 (Joules/Mol)
                                   16.97069 (Kcal/Mol)
 Vibrational temperatures:    958.58   958.58  1104.20  1104.20  2977.85
          (Kelvin)           4918.28  5058.28

 Zero-point correction=                           0.027045 (Hartree/Particle)
 Thermal correction to Energy=                    0.029836
 Thermal correction to Enthalpy=                  0.030780
 Thermal correction to Gibbs Free Energy=         0.008100
 Sum of electronic and zero-point Energies=            -77.339097
 Sum of electronic and thermal Energies=               -77.336306
 Sum of electronic and thermal Enthalpies=             -77.335361
 Sum of electronic and thermal Free Energies=          -77.358041

                     E (Thermal)             CV                S
                      KCal/Mol        Cal/Mol-Kelvin    Cal/Mol-Kelvin
 Total                   18.722              8.179             47.734
 Electronic               0.000              0.000              0.000
 Translational            0.889              2.981             35.704
 Rotational               0.592              1.987             10.860
 Vibrational             17.241              3.211              1.169

 Optimization completed.
    -- Stationary point found.
 Normal termination of Gaussian 16 at Mon Feb  7 16:27:59 2022.
