 Gaussian 16, Revision B.01,
 Gaussian 16:  ES64L-G16RevB.01 20-Dec-2017

 --------------------
 # b3lyp/gen opt freq
 --------------------

 ---------------------------------
 cyclopropenylidene, B3LYP/pcseg-2
 ---------------------------------
 Symbolic Z-matrix:
 Charge =  0 Multiplicity = 1

 SCF Done:  E(RB3LYP) =  -115.400394002     A.U. after   11 cycles
 SCF Done:  E(RB3LYP) =  -115.400547041     A.U. after    8 cycles
 SCF Done:  E(RB3LYP) =  -115.400560686     A.U. after    7 cycles
 Optimization completed.
    -- Stationary point found.
 Normal termination of Gaussian 16 at Fri Jun 17 13:38:50 2022.

 ------------------------------------------------------------------
 #N Geom=AllCheck Guess=TCheck SCRF=Check GenChk RB3LYP/ChkBas Freq
 ------------------------------------------------------------------

 Structure from the checkpoint file:  "/wrk/irikura/Gau-30145.chk"
 ---------------------------------
 cyclopropenylidene, B3LYP/pcseg-2
 ---------------------------------
 Charge =  0 Multiplicity = 1

                         Standard orientation:
 ---------------------------------------------------------------------
 Center     Atomic      Atomic             Coordinates (Angstroms)
 Number     Number       Type             X           Y           Z
 ---------------------------------------------------------------------
      1          6           0        0.000000    0.000000    0.928476
      2          6           0       -0.000000    0.659918   -0.320952
      3          6           0       -0.000000   -0.659918   -0.320952
      4          1           0       -0.000000    1.592780   -0.859716
      5          1           0       -0.000000   -1.592780   -0.859716
 ---------------------------------------------------------------------

 SCF Done:  E(RB3LYP) =  -115.400560686     A.U. after    1 cycles

 The electronic state is 1-A1.
 Alpha  occ. eigenvalues --  -10.23292 -10.23190 -10.19634  -0.93209  -0.60667
 Alpha  occ. eigenvalues --   -0.58698  -0.45921  -0.39156  -0.33942  -0.24061
 Alpha virt. eigenvalues --   -0.04621  -0.02168   0.02391   0.03279   0.09178
 Alpha virt. eigenvalues --    0.13239   0.13269   0.13996   0.16236   0.20443
 Alpha virt. eigenvalues --    0.23378   0.25497   0.25827   0.27678   0.31258

 Mulliken charges:
               1
     1  C   -0.226507
     2  C    0.040929
     3  C    0.040929
     4  H    0.072325
     5  H    0.072325
 Sum of Mulliken charges =  -0.00000

 Dipole moment (field-independent basis, Debye):
    X=             -0.0000    Y=             -0.0000    Z=             -3.4925  Tot=              3.4925
 Quadrupole moment (field-independent basis, Debye-Ang):
   XX=            -17.6153   YY=            -14.3679   ZZ=            -22.2815
   XY=              0.0000   XZ=              0.0000   YZ=             -0.0000

  Exact polarizability:  20.326  -0.000  34.022   0.000   0.000  33.404
 Approx polarizability:  30.552   0.000  53.355   0.000  -0.000  46.904

                      1                      2                      3
                     B1                     A1                     B2
 Frequencies --    802.5228               896.1913               907.9352
 Red. masses --      1.1923                 1.1255                 1.5208
 Frc consts  --      0.4524                 0.5326                 0.7387
 IR Inten    --     19.0468                23.8524                 3.1437

                      4                      5                      6
                     A2                     B2                     A1
 Frequencies --   1002.9093              1086.2867              1317.0808
 Red. masses --      1.4417                 4.2327                 6.5933
 Frc consts  --      0.8544                 2.9428                 6.7388
 IR Inten    --      0.0000                12.1191                50.2228

                      7                      8                      9
                     A1                     B2                     A1
 Frequencies --   1645.0317              3227.6462              3260.8229
 Red. masses --      5.4586                 1.0875                 1.1369
 Frc consts  --      8.7032                 6.6752                 7.1221
 IR Inten    --      0.2152                 0.1673                 0.0989

 - Thermochemistry -
 -------------------
 Temperature   298.150 Kelvin.  Pressure   1.00000 Atm.
 Atom     1 has atomic number  6 and mass  12.00000

 Molecular mass:    38.01565 amu.
 Principal axes and moments of inertia in atomic units:
                           1         2         3
     Eigenvalues --    50.81724  55.58510 106.40234
           X            0.00000   0.00000   1.00000
           Y            1.00000   0.00000  -0.00000
           Z            0.00000   1.00000   0.00000
 This molecule is an asymmetric top.
 Rotational symmetry number  2.
 Rotational temperatures (Kelvin)      1.70442     1.55822     0.81402
 Rotational constants (GHZ):          35.51435    32.46808    16.96148
 Zero-point vibrational energy      84614.4 (Joules/Mol)
                                   20.22333 (Kcal/Mol)
 Vibrational temperatures:   1154.65  1289.42  1306.32  1442.96  1562.92
          (Kelvin)           1894.99  2366.83  4643.86  4691.60

 Zero-point correction=                           0.032228 (Hartree/Particle)
 Thermal correction to Energy=                    0.035321
 Thermal correction to Enthalpy=                  0.036265
 Thermal correction to Gibbs Free Energy=         0.009437
 Sum of electronic and zero-point Energies=           -115.368333
 Sum of electronic and thermal Energies=              -115.365239
 Sum of electronic and thermal Enthalpies=            -115.364295
 Sum of electronic and thermal Free Energies=         -115.391124

                     E (Thermal)             CV                S
                      KCal/Mol        Cal/Mol-Kelvin    Cal/Mol-Kelvin
 Total                   22.164              8.454             56.466
 Electronic               0.000              0.000              0.000
 Translational            0.889              2.981             36.835
 Rotational               0.889              2.981             18.958
 Vibrational             20.387              2.492              0.672

                           ! Non-Optimized Parameters !
 Normal termination of Gaussian 16 at Fri Jun 17 13:39:01 2022.
