 Gaussian 16, Revision B.01,
 Gaussian 16:  ES64L-G16RevB.01 20-Dec-2017

 --------------------
 # b3lyp/gen opt freq
 --------------------

 --------------------
 vinyl, B3LYP/pcseg-2
 --------------------
 Symbolic Z-matrix:
 Charge =  0 Multiplicity = 2

 SCF Done:  E(UB3LYP) =  -77.9387377164     A.U. after   16 cycles
 Optimization completed.
    -- Stationary point found.
 Normal termination of Gaussian 16 at Tue Jun 14 20:33:19 2022.

 ------------------------------------------------------------------
 #N Geom=AllCheck Guess=TCheck SCRF=Check GenChk UB3LYP/ChkBas Freq
 ------------------------------------------------------------------

 Structure from the checkpoint file:  "/wrk/irikura/Gau-10579.chk"
 --------------------
 vinyl, B3LYP/pcseg-2
 --------------------
 Charge =  0 Multiplicity = 2

                         Standard orientation:
 ---------------------------------------------------------------------
 Center     Atomic      Atomic             Coordinates (Angstroms)
 Number     Number       Type             X           Y           Z
 ---------------------------------------------------------------------
      1          6           0        0.048036    0.717034    0.000000
      2          6           0        0.048036   -0.584152    0.000000
      3          1           0       -0.661561    1.528307    0.000000
      4          1           0       -0.879450   -1.159568    0.000000
      5          1           0        0.964580   -1.166033    0.000000
 ---------------------------------------------------------------------

 SCF Done:  E(UB3LYP) =  -77.9387377164     A.U. after    1 cycles

 The electronic state is 2-A'.
 Alpha  occ. eigenvalues --  -10.20224 -10.18166  -0.77560  -0.58348  -0.47171
 Alpha  occ. eigenvalues --   -0.44065  -0.29521  -0.24287
 Alpha virt. eigenvalues --   -0.00941   0.03012   0.04549   0.07145   0.14854
 Alpha virt. eigenvalues --    0.16917   0.17649   0.21046   0.25142   0.25688
 Alpha virt. eigenvalues --    0.28512   0.33440   0.34339   0.37565   0.42967

  Beta  occ. eigenvalues --  -10.18644 -10.18315  -0.75839  -0.56219  -0.45737
  Beta  occ. eigenvalues --   -0.42518  -0.28747
  Beta virt. eigenvalues --   -0.08579   0.00060   0.03199   0.04873   0.07419
  Beta virt. eigenvalues --    0.15094   0.17025   0.19440   0.21928   0.26133
  Beta virt. eigenvalues --    0.26549   0.29529   0.34149   0.34546   0.38286

 Mulliken charges and spin densities:
               1          2
     1  C   -0.076516   1.000297
     2  C   -0.120219  -0.153222
     3  H    0.066278   0.021377
     4  H    0.060783   0.085872
     5  H    0.069674   0.045676
 Sum of Mulliken charges =  -0.00000   1.00000

 Dipole moment (field-independent basis, Debye):
    X=             -0.6407    Y=             -0.3255    Z=              0.0000  Tot=              0.7187
 Quadrupole moment (field-independent basis, Debye-Ang):
   XX=            -12.5349   YY=            -11.4908   ZZ=            -14.9538
   XY=             -1.2244   XZ=              0.0000   YZ=              0.0000

  Exact polarizability:  20.270  -0.630  34.772   0.000  -0.000  16.823
 Approx polarizability:  25.190  -0.540  52.299  -0.000  -0.000  21.562

                      1                      2                      3
                     A'                     A"                     A"
 Frequencies --    711.2733               824.6590               931.0774
 Red. masses --      1.0568                 1.2359                 1.2512
 Frc consts  --      0.3150                 0.4952                 0.6391
 IR Inten    --     23.3374                23.5961                75.3619

                      4                      5                      6
                     A'                     A'                     A'
 Frequencies --   1048.4616              1395.8783              1650.8743
 Red. masses --      1.5052                 1.1055                 5.4113
 Frc consts  --      0.9749                 1.2692                 8.6892
 IR Inten    --      7.7234                 8.4209                 2.2223

                      7                      8                      9
                     A'                     A'                     A'
 Frequencies --   3043.2318              3140.4468              3242.6276
 Red. masses --      1.0626                 1.1012                 1.1051
 Frc consts  --      5.7981                 6.3987                 6.8463
 IR Inten    --      5.1313                 3.1982                 0.4651

 - Thermochemistry -
 -------------------
 Temperature   298.150 Kelvin.  Pressure   1.00000 Atm.
 Atom     1 has atomic number  6 and mass  12.00000

 Molecular mass:    27.02348 amu.
 Principal axes and moments of inertia in atomic units:
                           1         2         3
     Eigenvalues --     7.55518  55.01785  62.57303
           X           -0.08038   0.99676   0.00000
           Y            0.99676   0.08038   0.00000
           Z           -0.00000   0.00000   1.00000
 This molecule is an asymmetric top.
 Rotational symmetry number  1.
 Rotational temperatures (Kelvin)     11.46418     1.57429     1.38421
 Rotational constants (GHZ):         238.87472    32.80283    28.84216
 Zero-point vibrational energy      95632.6 (Joules/Mol)
                                   22.85675 (Kcal/Mol)
 Vibrational temperatures:   1023.36  1186.50  1339.61  1508.50  2008.36
          (Kelvin)           2375.24  4378.53  4518.40  4665.42

 Zero-point correction=                           0.036425 (Hartree/Particle)
 Thermal correction to Energy=                    0.039526
 Thermal correction to Enthalpy=                  0.040470
 Thermal correction to Gibbs Free Energy=         0.013955
 Sum of electronic and zero-point Energies=            -77.902313
 Sum of electronic and thermal Energies=               -77.899212
 Sum of electronic and thermal Enthalpies=             -77.898268
 Sum of electronic and thermal Free Energies=          -77.924783

                     E (Thermal)             CV                S
                      KCal/Mol        Cal/Mol-Kelvin    Cal/Mol-Kelvin
 Total                   24.803              8.318             55.805
 Electronic               0.000              0.000              1.377
 Translational            0.889              2.981             35.818
 Rotational               0.889              2.981             17.904
 Vibrational             23.025              2.356              0.706

                           ! Non-Optimized Parameters !
 Normal termination of Gaussian 16 at Tue Jun 14 20:33:49 2022.
