 Gaussian 16, Revision B.01,

 ---------------------------------------
 # b3lyp/gen opt freq CPHF(Grid=OneStep)
 ---------------------------------------

 -----------------------------
 fluoroethylene, B3LYP/pcseg-2
 -----------------------------
 Symbolic Z-matrix:
 Charge =  0 Multiplicity = 1

 SCF Done:  E(RB3LYP) =  -177.906342664     A.U. after   12 cycles
 Optimization completed.
    -- Stationary point found.
 Normal termination of Gaussian 16 at Fri Sep 29 18:53:29 2023.

 ------------------------------------------------------------------
 #N Geom=AllCheck Guess=TCheck SCRF=Check GenChk RB3LYP/ChkBas Freq
 ------------------------------------------------------------------

 Structure from the checkpoint file:  "c2h3f.chk"
 -----------------------------
 fluoroethylene, B3LYP/pcseg-2
 -----------------------------
 Charge =  0 Multiplicity = 1

 SCF Done:  E(RB3LYP) =  -177.906342664     A.U. after    1 cycles

  Exact polarizability:  33.494  -3.714  24.688   0.000   0.000  18.181
 Approx polarizability:  49.937  -7.107  32.918  -0.000  -0.000  23.978

                      1                      2                      3
                     A'                     A"                     A"
 Frequencies --    487.9708               729.7744               898.3991
 Red. masses --      2.3961                 1.4550                 1.3804
 Frc consts  --      0.3362                 0.4565                 0.6564
 IR Inten    --      3.9239                 4.4236                56.7831

                      4                      5                      6
                     A'                     A"                     A'
 Frequencies --    937.3537               967.1670              1165.5199
 Red. masses --      2.1931                 1.1244                 2.9866
 Frc consts  --      1.1353                 0.6197                 2.3904
 IR Inten    --     48.0501                32.1854               107.1745

                      7                      8                      9
                     A'                     A'                     A'
 Frequencies --   1336.3356              1416.2648              1708.3085
 Red. masses --      1.1591                 1.1776                 4.6757
 Frc consts  --      1.2195                 1.3917                 8.0395
 IR Inten    --      1.4427                 5.0777               110.7996

                     10                     11                     12
                     A'                     A'                     A'
 Frequencies --   3169.2661              3203.8698              3263.5281
 Red. masses --      1.0575                 1.0990                 1.1173
 Frc consts  --      6.2579                 6.6464                 7.0110
 IR Inten    --      0.9970                 6.6009                 1.8587

 - Thermochemistry -
 -------------------
 Temperature   298.150 Kelvin.  Pressure   1.00000 Atm.
 Atom     1 has atomic number  6 and mass  12.00000

 Molecular mass:    46.02188 amu.
 Principal axes and moments of inertia in atomic units:
                           1         2         3
     Eigenvalues --    27.48896 170.01286 197.50181
           X            0.99685  -0.07928   0.00000
           Y            0.07928   0.99685   0.00000
           Z            0.00000   0.00000   1.00000
 This molecule is an asymmetric top.
 Rotational symmetry number  1.
 Rotational temperatures (Kelvin)      3.15086     0.50946     0.43855
 Rotational constants (GHZ):          65.65332    10.61532     9.13785
 Zero-point vibrational energy     115342.5 (Joules/Mol)
                                   27.56752 (Kcal/Mol)
 Warning -- explicit consideration of   1 degrees of freedom as
           vibrations may cause significant error
 Vibrational temperatures:    702.08  1049.98  1292.60  1348.64  1391.54
          (Kelvin)           1676.92  1922.69  2037.69  2457.87  4559.87
                             4609.65  4695.49

 Zero-point correction=                           0.043932 (Hartree/Particle)
 Thermal correction to Energy=                    0.047279
 Thermal correction to Enthalpy=                  0.048224
 Thermal correction to Gibbs Free Energy=         0.019584
 Sum of electronic and zero-point Energies=           -177.862411
 Sum of electronic and thermal Energies=              -177.859063
 Sum of electronic and thermal Enthalpies=            -177.858119
 Sum of electronic and thermal Free Energies=         -177.886759

                     E (Thermal)             CV                S
                      KCal/Mol        Cal/Mol-Kelvin    Cal/Mol-Kelvin
 Total                   29.668              9.875             60.277
 Electronic               0.000              0.000              0.000
 Translational            0.889              2.981             37.405
 Rotational               0.889              2.981             21.450
 Vibrational             27.891              3.913              1.422
 Vibration     1          0.844              1.277              0.689

 Optimization completed.
    -- Stationary point found.
 Normal termination of Gaussian 16 at Fri Sep 29 18:54:33 2023.
 Gaussian 16:  ES64L-G16RevB.01 20-Dec-2017

 ---------------------------------
 # rohf/gen geom=check guess=check
 ---------------------------------

 --------------------------------
 fluoroethylene, ROHF/cc-pVTZ-F12
 --------------------------------
 Structure from the checkpoint file:  "c2h3f.chk"
 Charge =  0 Multiplicity = 1

                         Standard orientation:
 ---------------------------------------------------------------------
 Center     Atomic      Atomic             Coordinates (Angstroms)
 Number     Number       Type             X           Y           Z
 ---------------------------------------------------------------------
      1          6           0        0.000000    0.434138    0.000000
      2          6           0        1.185770   -0.139038    0.000000
      3          9           0       -1.143176   -0.281397    0.000000
      4          1           0       -0.194318    1.497600    0.000000
      5          1           0        1.297191   -1.213266    0.000000
      6          1           0        2.071093    0.477642    0.000000
 ---------------------------------------------------------------------

 SCF Done:  E(ROHF) =  -176.967326679     A.U. after   11 cycles

 The electronic state is 1-A'.
 Alpha  occ. eigenvalues --  -26.30532 -11.32694 -11.23495  -1.62258  -1.05412
 Alpha  occ. eigenvalues --   -0.83647  -0.73670  -0.68834  -0.68415  -0.58984
 Alpha  occ. eigenvalues --   -0.55968  -0.38768
 Alpha virt. eigenvalues --    0.05156   0.05692   0.07448   0.08082   0.09034
 Alpha virt. eigenvalues --    0.09123   0.10799   0.17397   0.18156   0.18486
 Alpha virt. eigenvalues --    0.22251   0.22948   0.24179   0.24374   0.26138

 Mulliken charges and spin densities:
               1          2
     1  C    0.129571   0.000000
     2  C   -0.314757   0.000000
     3  F   -0.343694   0.000000
     4  H    0.201618   0.000000
     5  H    0.175037   0.000000
     6  H    0.152225   0.000000
 Sum of Mulliken charges =  -0.00000   0.00000

 Dipole moment (field-independent basis, Debye):
    X=              1.3598    Y=              0.9131    Z=              0.0000  Tot=              1.6379
 Quadrupole moment (field-independent basis, Debye-Ang):
   XX=            -17.7190   YY=            -15.4416   ZZ=            -19.3051
   XY=             -1.0765   XZ=              0.0000   YZ=              0.0000

 Normal termination of Gaussian 16 at Fri Sep 29 18:54:48 2023.
