 Gaussian 16, Revision B.01,

 ---------------------------------------
 # b3lyp/gen opt freq CPHF(Grid=OneStep)
 ---------------------------------------

 ----------------------------
 acrylonitrile, B3LYP/pcseg-2
 ----------------------------
 Symbolic Z-matrix:
 Charge =  0 Multiplicity = 1

 SCF Done:  E(RB3LYP) =  -170.902550699     A.U. after   13 cycles
 Optimization completed.
    -- Stationary point found.
 Normal termination of Gaussian 16 at Sun Oct  1 01:01:17 2023.

 ------------------------------------------------------------------
 #N Geom=AllCheck Guess=TCheck SCRF=Check GenChk RB3LYP/ChkBas Freq
 ------------------------------------------------------------------

 Structure from the checkpoint file:  "c2h3cn.chk"
 ----------------------------
 acrylonitrile, B3LYP/pcseg-2
 ----------------------------
 Charge =  0 Multiplicity = 1

 SCF Done:  E(RB3LYP) =  -170.902550699     A.U. after    1 cycles

  Exact polarizability:  47.854  14.232  47.750   0.000   0.000  24.324
 Approx polarizability:  76.104  26.619  75.399   0.000   0.000  33.848

                      1                      2                      3
                     A'                     A"                     A'
 Frequencies --    239.0839               350.6165               583.7588
 Red. masses --      4.0866                 2.6550                 4.0423
 Frc consts  --      0.1376                 0.1923                 0.8116
 IR Inten    --      3.0770                 0.2188                 0.0303

                      4                      5                      6
                     A"                     A'                     A"
 Frequencies --    714.4410               883.1087               996.8682
 Red. masses --      2.2051                 2.8146                 1.2530
 Frc consts  --      0.6631                 1.2933                 0.7336
 IR Inten    --     12.1783                 1.5477                54.2165

                      7                      8                      9
                     A"                     A'                     A'
 Frequencies --   1011.9433              1113.8555              1324.3579
 Red. masses --      1.1595                 1.6463                 1.2906
 Frc consts  --      0.6996                 1.2034                 1.3337
 IR Inten    --      5.6923                 2.6796                 0.3648

                     10                     11                     12
                     A'                     A'                     A'
 Frequencies --   1451.4003              1675.7525              2332.8429
 Red. masses --      1.2148                 4.1162                12.6322
 Frc consts  --      1.5077                 6.8103                40.5042
 IR Inten    --      7.1605                 1.4023                 9.4479

                     13                     14                     15
                     A'                     A'                     A'
 Frequencies --   3158.9512              3173.1205              3250.8471
 Red. masses --      1.0579                 1.0913                 1.1179
 Frc consts  --      6.2196                 6.4738                 6.9607
 IR Inten    --      0.4416                 0.7534                 1.1498

 - Thermochemistry -
 -------------------
 Temperature   298.150 Kelvin.  Pressure   1.00000 Atm.
 Atom     1 has atomic number  6 and mass  12.00000

 Molecular mass:    53.02655 amu.
 Principal axes and moments of inertia in atomic units:
                           1         2         3
     Eigenvalues --    35.07486 362.68174 397.75660
           X            0.64461   0.76451   0.00000
           Y            0.76451  -0.64461   0.00000
           Z           -0.00000  -0.00000   1.00000
 This molecule is an asymmetric top.
 Rotational symmetry number  1.
 Rotational temperatures (Kelvin)      2.46940     0.23882     0.21776
 Rotational constants (GHZ):          51.45398     4.97610     4.53730
 Zero-point vibrational energy     133150.0 (Joules/Mol)
                                   31.82362 (Kcal/Mol)
 Warning -- explicit consideration of   3 degrees of freedom as
           vibrations may cause significant error
 Vibrational temperatures:    343.99   504.46   839.90  1027.92  1270.60
          (Kelvin)           1434.27  1455.96  1602.59  1905.46  2088.24
                             2411.03  3356.44  4545.03  4565.41  4677.24

 Zero-point correction=                           0.050714 (Hartree/Particle)
 Thermal correction to Energy=                    0.054858
 Thermal correction to Enthalpy=                  0.055802
 Thermal correction to Gibbs Free Energy=         0.024849
 Sum of electronic and zero-point Energies=           -170.851837
 Sum of electronic and thermal Energies=              -170.847693
 Sum of electronic and thermal Enthalpies=            -170.846749
 Sum of electronic and thermal Free Energies=         -170.877702

                     E (Thermal)             CV                S
                      KCal/Mol        Cal/Mol-Kelvin    Cal/Mol-Kelvin
 Total                   34.424             12.990             65.146
 Electronic               0.000              0.000              0.000
 Translational            0.889              2.981             37.827
 Rotational               0.889              2.981             23.141
 Vibrational             32.646              7.029              4.178
 Vibration     1          0.657              1.781              1.810
 Vibration     2          0.728              1.574              1.163
 Vibration     3          0.941              1.066              0.478

 Optimization completed.
    -- Stationary point found.
 Normal termination of Gaussian 16 at Sun Oct  1 01:03:16 2023.
 Gaussian 16:  ES64L-G16RevB.01 20-Dec-2017

 ---------------------------------
 # rohf/gen geom=check guess=check
 ---------------------------------

 -------------------------------
 acrylonitrile, ROHF/cc-pVTZ-F12
 -------------------------------
 Structure from the checkpoint file:  "c2h3cn.chk"
 Charge =  0 Multiplicity = 1

                         Standard orientation:
 ---------------------------------------------------------------------
 Center     Atomic      Atomic             Coordinates (Angstroms)
 Number     Number       Type             X           Y           Z
 ---------------------------------------------------------------------
      1          6           0       -0.575659   -0.536323   -0.000000
      2          7           0       -1.064660   -1.579643   -0.000000
      3          6           0        0.000000    0.768655    0.000000
      4          1           0       -0.703985    1.591366    0.000000
      5          6           0        1.313485    0.984910    0.000000
      6          1           0        2.024420    0.170965    0.000000
      7          1           0        1.705231    1.991718    0.000000
 ---------------------------------------------------------------------

 SCF Done:  E(ROHF) =  -169.837288274     A.U. after   12 cycles

 The electronic state is 1-A'.
 Alpha  occ. eigenvalues --  -15.57518 -11.29179 -11.28206 -11.27886  -1.22752
 Alpha  occ. eigenvalues --   -1.10260  -0.88893  -0.73016  -0.66411  -0.58762
 Alpha  occ. eigenvalues --   -0.55588  -0.52246  -0.47303  -0.39995
 Alpha virt. eigenvalues --    0.03721   0.04768   0.05747   0.06033   0.08142
 Alpha virt. eigenvalues --    0.08514   0.09361   0.10176   0.11417   0.11812
 Alpha virt. eigenvalues --    0.12099   0.15866   0.17674   0.18359   0.19403

 Mulliken charges and spin densities:
               1          2
     1  C    0.089664   0.000000
     2  N   -0.398334   0.000000
     3  C    0.024296   0.000000
     4  H    0.199956   0.000000
     5  C   -0.260367   0.000000
     6  H    0.173769   0.000000
     7  H    0.171016   0.000000
 Sum of Mulliken charges =  -0.00000   0.00000

 Dipole moment (field-independent basis, Debye):
    X=              2.2854    Y=              3.7471    Z=              0.0000  Tot=              4.3890
 Quadrupole moment (field-independent basis, Debye-Ang):
   XX=            -22.5269   YY=            -26.3249   ZZ=            -25.3425
   XY=             -2.8492   XZ=             -0.0000   YZ=             -0.0000

 Normal termination of Gaussian 16 at Sun Oct  1 01:04:22 2023.
