 Gaussian 16, Revision B.01,

 ---------------------------------------
 # b3lyp/gen opt freq CPHF(Grid=OneStep)
 ---------------------------------------

 ------------------------------
 vinyl acetylene, B3LYP/pcseg-2
 ------------------------------
 Symbolic Z-matrix:
 Charge =  0 Multiplicity = 1

 SCF Done:  E(RB3LYP) =  -154.802545270     A.U. after   13 cycles
 SCF Done:  E(RB3LYP) =  -154.802542500     A.U. after    7 cycles
 SCF Done:  E(RB3LYP) =  -154.802545414     A.U. after    7 cycles
 Optimization completed.
    -- Stationary point found.
 Normal termination of Gaussian 16 at Sat Sep 30 06:45:42 2023.

 ------------------------------------------------------------------
 #N Geom=AllCheck Guess=TCheck SCRF=Check GenChk RB3LYP/ChkBas Freq
 ------------------------------------------------------------------

 Structure from the checkpoint file:  "c2h3cch.chk"
 ------------------------------
 vinyl acetylene, B3LYP/pcseg-2
 ------------------------------
 Charge =  0 Multiplicity = 1

 SCF Done:  E(RB3LYP) =  -154.802545414     A.U. after    1 cycles

  Exact polarizability:  37.919  -4.725  77.738   0.000  -0.000  27.542
 Approx polarizability:  54.864  -8.415 128.509   0.000   0.000  37.619

                      1                      2                      3
                     A'                     A"                     A'
 Frequencies --    226.4325               320.9227               560.6463
 Red. masses --      3.0656                 2.3073                 3.3849
 Frc consts  --      0.0926                 0.1400                 0.6269
 IR Inten    --      3.2074                11.0346                 5.9082

                      4                      5                      6
                     A"                     A'                     A"
 Frequencies --    656.9187               681.2142               706.9403
 Red. masses --      1.2811                 1.2652                 1.9212
 Frc consts  --      0.3257                 0.3459                 0.5657
 IR Inten    --     50.1540                48.6862                 3.4492

                      7                      8                      9
                     A'                     A"                     A"
 Frequencies --    893.3423               964.6097              1012.4800
 Red. masses --      2.6217                 1.3305                 1.1211
 Frc consts  --      1.2327                 0.7294                 0.6771
 IR Inten    --      2.3078                48.3671                14.0969

                     10                     11                     12
                     A'                     A'                     A'
 Frequencies --   1114.4480              1325.2253              1449.3333
 Red. masses --      1.6478                 1.2887                 1.2223
 Frc consts  --      1.2058                 1.3334                 1.5127
 IR Inten    --      4.0035                 0.4095                 2.8961

                     13                     14                     15
                     A'                     A'                     A'
 Frequencies --   1666.5270              2201.9178              3142.0870
 Red. masses --      4.0392                 6.1448                 1.0822
 Frc consts  --      6.6096                17.5532                 6.2949
 IR Inten    --     11.1946                 1.1115                 4.5305

                     16                     17                     18
                     A'                     A'                     A'
 Frequencies --   3154.2947              3242.7223              3471.8270
 Red. masses --      1.0642                 1.1174                 1.1566
 Frc consts  --      6.2385                 6.9230                 8.2139
 IR Inten    --      2.9763                 5.4574                72.2975

 - Thermochemistry -
 -------------------
 Temperature   298.150 Kelvin.  Pressure   1.00000 Atm.
 Atom     1 has atomic number  6 and mass  12.00000

 Molecular mass:    52.03130 amu.
 Principal axes and moments of inertia in atomic units:
                           1         2         3
     Eigenvalues --    34.71096 380.14486 414.85582
           X           -0.14652   0.98921   0.00000
           Y            0.98921   0.14652   0.00000
           Z           -0.00000  -0.00000   1.00000
 This molecule is an asymmetric top.
 Rotational symmetry number  1.
 Rotational temperatures (Kelvin)      2.49529     0.22784     0.20878
 Rotational constants (GHZ):          51.99341     4.74751     4.35029
 Zero-point vibrational energy     160251.1 (Joules/Mol)
                                   38.30093 (Kcal/Mol)
 Warning -- explicit consideration of   3 degrees of freedom as
           vibrations may cause significant error
 Vibrational temperatures:    325.79   461.74   806.64   945.16   980.12
          (Kelvin)           1017.13  1285.32  1387.86  1456.73  1603.44
                             1906.70  2085.27  2397.76  3168.07  4520.76
                             4538.33  4665.55  4995.18

 Zero-point correction=                           0.061036 (Hartree/Particle)
 Thermal correction to Energy=                    0.065504
 Thermal correction to Enthalpy=                  0.066448
 Thermal correction to Gibbs Free Energy=         0.035014
 Sum of electronic and zero-point Energies=           -154.741509
 Sum of electronic and thermal Energies=              -154.737042
 Sum of electronic and thermal Enthalpies=            -154.736098
 Sum of electronic and thermal Free Energies=         -154.767531

                     E (Thermal)             CV                S
                      KCal/Mol        Cal/Mol-Kelvin    Cal/Mol-Kelvin
 Total                   41.104             14.939             66.158
 Electronic               0.000              0.000              0.000
 Translational            0.889              2.981             37.771
 Rotational               0.889              2.981             23.219
 Vibrational             39.327              8.977              5.168
 Vibration     1          0.650              1.801              1.907
 Vibration     2          0.706              1.633              1.305
 Vibration     3          0.916              1.116              0.523

 Optimization completed.
    -- Stationary point found.
 Normal termination of Gaussian 16 at Sat Sep 30 06:48:07 2023.
 Gaussian 16:  ES64L-G16RevB.01 20-Dec-2017

 ---------------------------------
 # rohf/gen geom=check guess=check
 ---------------------------------

 ---------------------------------
 vinyl acetylene, ROHF/cc-pVTZ-F12
 ---------------------------------
 Structure from the checkpoint file:  "c2h3cch.chk"
 Charge =  0 Multiplicity = 1

                         Standard orientation:
 ---------------------------------------------------------------------
 Center     Atomic      Atomic             Coordinates (Angstroms)
 Number     Number       Type             X           Y           Z
 ---------------------------------------------------------------------
      1          6           0        0.577287   -0.554838    0.000000
      2          6           0       -0.000000    0.742849   -0.000000
      3          6           0       -0.118493   -1.693157    0.000000
      4          6           0       -0.455594    1.855577   -0.000000
      5          1           0        1.661584   -0.590060    0.000000
      6          1           0        0.385079   -2.649201    0.000000
      7          1           0       -1.199472   -1.697428   -0.000000
      8          1           0       -0.866389    2.834109   -0.000000
 ---------------------------------------------------------------------

 SCF Done:  E(ROHF) =  -153.773932829     A.U. after   12 cycles

 The electronic state is 1-A'.
 Alpha  occ. eigenvalues --  -11.26125 -11.24688 -11.23907 -11.22965  -1.09406
 Alpha  occ. eigenvalues --   -1.00709  -0.84515  -0.72394  -0.67595  -0.62606
 Alpha  occ. eigenvalues --   -0.54326  -0.46745  -0.39812  -0.34636
 Alpha virt. eigenvalues --    0.04827   0.05104   0.05525   0.06876   0.07543
 Alpha virt. eigenvalues --    0.08675   0.09107   0.10204   0.11052   0.12176
 Alpha virt. eigenvalues --    0.12557   0.12954   0.14944   0.17103   0.18296

 Mulliken charges and spin densities:
               1          2
     1  C   -0.145356   0.000000
     2  C    0.044181   0.000000
     3  C   -0.298445   0.000000
     4  C   -0.325065   0.000000
     5  H    0.176907   0.000000
     6  H    0.155631   0.000000
     7  H    0.158351   0.000000
     8  H    0.233797   0.000000
 Sum of Mulliken charges =  -0.00000   0.00000

 Dipole moment (field-independent basis, Debye):
    X=              0.0334    Y=             -0.5255    Z=              0.0000  Tot=              0.5266
 Quadrupole moment (field-independent basis, Debye-Ang):
   XX=            -22.9075   YY=            -18.5455   ZZ=            -27.4801
   XY=             -1.8483   XZ=             -0.0000   YZ=             -0.0000

 Normal termination of Gaussian 16 at Sat Sep 30 06:49:28 2023.
