 Gaussian 16, Revision B.01,
 Gaussian 16:  ES64L-G16RevB.01 20-Dec-2017

 --------------------
 # b3lyp/gen opt freq
 --------------------

 -----------------------------
 fluoroethylene, B3LYP/pcseg-2
 -----------------------------
 Symbolic Z-matrix:
 Charge =  0 Multiplicity = 1

 SCF Done:  E(RB3LYP) =  -177.906176457     A.U. after   12 cycles
 SCF Done:  E(RB3LYP) =  -177.906318251     A.U. after    8 cycles
 SCF Done:  E(RB3LYP) =  -177.906341687     A.U. after    7 cycles
 SCF Done:  E(RB3LYP) =  -177.906342664     A.U. after    7 cycles
 Optimization completed.
    -- Stationary point found.
 Normal termination of Gaussian 16 at Wed Jun 15 15:31:23 2022.

 ------------------------------------------------------------------
 #N Geom=AllCheck Guess=TCheck SCRF=Check GenChk RB3LYP/ChkBas Freq
 ------------------------------------------------------------------

 Structure from the checkpoint file:  "/wrk/irikura/Gau-11558.chk"
 -----------------------------
 fluoroethylene, B3LYP/pcseg-2
 -----------------------------
 Charge =  0 Multiplicity = 1

                         Standard orientation:
 ---------------------------------------------------------------------
 Center     Atomic      Atomic             Coordinates (Angstroms)
 Number     Number       Type             X           Y           Z
 ---------------------------------------------------------------------
      1          6           0        0.000000    0.434138    0.000000
      2          6           0        1.185770   -0.139038    0.000000
      3          9           0       -1.143176   -0.281397    0.000000
      4          1           0       -0.194318    1.497600    0.000000
      5          1           0        1.297191   -1.213266    0.000000
      6          1           0        2.071093    0.477643    0.000000
 ---------------------------------------------------------------------

 SCF Done:  E(RB3LYP) =  -177.906342664     A.U. after    1 cycles

 The electronic state is 1-A'.
 Alpha  occ. eigenvalues --  -24.69165 -10.26345 -10.17809  -1.22917  -0.78090
 Alpha  occ. eigenvalues --   -0.61714  -0.53834  -0.49405  -0.46989  -0.41952
 Alpha  occ. eigenvalues --   -0.38569  -0.27927
 Alpha virt. eigenvalues --   -0.00531   0.02622   0.04520   0.07574   0.08426
 Alpha virt. eigenvalues --    0.15090   0.16146   0.20133   0.23573   0.24117
 Alpha virt. eigenvalues --    0.28656   0.29457   0.32709   0.33623   0.37459

 Mulliken charges:
               1
     1  C    0.241171
     2  C   -0.134288
     3  F   -0.272740
     4  H    0.037705
     5  H    0.068224
     6  H    0.059929
 Sum of Mulliken charges =  -0.00000

 Dipole moment (field-independent basis, Debye):
    X=              1.2005    Y=              0.8486    Z=              0.0000  Tot=              1.4701
 Quadrupole moment (field-independent basis, Debye-Ang):
   XX=            -17.8014   YY=            -15.7002   ZZ=            -19.2596
   XY=             -0.8410   XZ=              0.0000   YZ=              0.0000

  Exact polarizability:  33.494  -3.713  24.688   0.000  -0.000  18.180
 Approx polarizability:  49.937  -7.107  32.918  -0.000  -0.000  23.978

                      1                      2                      3
                     A'                     A"                     A"
 Frequencies --    487.9689               729.7738               898.3976
 Red. masses --      2.3961                 1.4550                 1.3804
 Frc consts  --      0.3361                 0.4565                 0.6564
 IR Inten    --      3.9239                 4.4241                56.7843

                      4                      5                      6
                     A'                     A"                     A'
 Frequencies --    937.3518               967.1678              1165.5184
 Red. masses --      2.1932                 1.1244                 2.9866
 Frc consts  --      1.1353                 0.6197                 2.3904
 IR Inten    --     48.0502                32.1827               107.1731

                      7                      8                      9
                     A'                     A'                     A'
 Frequencies --   1336.3376              1416.2626              1708.3081
 Red. masses --      1.1591                 1.1776                 4.6757
 Frc consts  --      1.2195                 1.3917                 8.0395
 IR Inten    --      1.4420                 5.0768               110.7992

                     10                     11                     12
                     A'                     A'                     A'
 Frequencies --   3169.2694              3203.8759              3263.5305
 Red. masses --      1.0575                 1.0990                 1.1173
 Frc consts  --      6.2579                 6.6465                 7.0110
 IR Inten    --      0.9974                 6.5994                 1.8592

 - Thermochemistry -
 -------------------
 Temperature   298.150 Kelvin.  Pressure   1.00000 Atm.
 Atom     1 has atomic number  6 and mass  12.00000

 Molecular mass:    46.02188 amu.
 Principal axes and moments of inertia in atomic units:
                           1         2         3
     Eigenvalues --    27.48895 170.01286 197.50181
           X            0.99685  -0.07928   0.00000
           Y            0.07928   0.99685   0.00000
           Z            0.00000   0.00000   1.00000
 This molecule is an asymmetric top.
 Rotational symmetry number  1.
 Rotational temperatures (Kelvin)      3.15086     0.50946     0.43855
 Rotational constants (GHZ):          65.65333    10.61532     9.13785
 Zero-point vibrational energy     115342.5 (Joules/Mol)
                                   27.56752 (Kcal/Mol)
 Warning -- explicit consideration of   1 degrees of freedom as
           vibrations may cause significant error
 Vibrational temperatures:    702.08  1049.98  1292.59  1348.64  1391.54
          (Kelvin)           1676.92  1922.69  2037.69  2457.87  4559.87
                             4609.66  4695.49

 Zero-point correction=                           0.043932 (Hartree/Particle)
 Thermal correction to Energy=                    0.047279
 Thermal correction to Enthalpy=                  0.048224
 Thermal correction to Gibbs Free Energy=         0.019584
 Sum of electronic and zero-point Energies=           -177.862411
 Sum of electronic and thermal Energies=              -177.859063
 Sum of electronic and thermal Enthalpies=            -177.858119
 Sum of electronic and thermal Free Energies=         -177.886759

                     E (Thermal)             CV                S
                      KCal/Mol        Cal/Mol-Kelvin    Cal/Mol-Kelvin
 Total                   29.668              9.875             60.277
 Electronic               0.000              0.000              0.000
 Translational            0.889              2.981             37.405
 Rotational               0.889              2.981             21.450
 Vibrational             27.891              3.913              1.422
 Vibration     1          0.844              1.277              0.689

 Optimization completed.
    -- Stationary point found.
 Normal termination of Gaussian 16 at Wed Jun 15 15:31:49 2022.
