 Gaussian 16, Revision B.01,

 ---------------------------------------
 # b3lyp/gen opt freq CPHF(Grid=OneStep)
 ---------------------------------------

 --------------------
 vinyl, B3LYP/pcseg-2
 --------------------
 Symbolic Z-matrix:
 Charge =  0 Multiplicity = 2

 SCF Done:  E(UB3LYP) =  -77.9387377164     A.U. after   16 cycles
 Optimization completed.
    -- Stationary point found.
 Normal termination of Gaussian 16 at Fri Sep 29 17:48:42 2023.

 ------------------------------------------------------------------
 #N Geom=AllCheck Guess=TCheck SCRF=Check GenChk UB3LYP/ChkBas Freq
 ------------------------------------------------------------------

 Structure from the checkpoint file:  "c2h3.chk"
 --------------------
 vinyl, B3LYP/pcseg-2
 --------------------
 Charge =  0 Multiplicity = 2

 SCF Done:  E(UB3LYP) =  -77.9387377164     A.U. after    1 cycles

  Exact polarizability:  20.270  -0.630  34.771   0.000   0.000  16.823
 Approx polarizability:  25.190  -0.540  52.299  -0.000  -0.000  21.562

                      1                      2                      3
                     A'                     A"                     A"
 Frequencies --    711.3207               824.6718               931.0780
 Red. masses --      1.0568                 1.2359                 1.2512
 Frc consts  --      0.3151                 0.4952                 0.6391
 IR Inten    --     23.3343                23.5929                75.3622

                      4                      5                      6
                     A'                     A'                     A'
 Frequencies --   1048.4590              1395.8776              1650.8740
 Red. masses --      1.5052                 1.1055                 5.4113
 Frc consts  --      0.9749                 1.2692                 8.6892
 IR Inten    --      7.7228                 8.4210                 2.2235

                      7                      8                      9
                     A'                     A'                     A'
 Frequencies --   3043.2324              3140.4488              3242.6292
 Red. masses --      1.0626                 1.1012                 1.1051
 Frc consts  --      5.7981                 6.3987                 6.8463
 IR Inten    --      5.1297                 3.1970                 0.4652

 - Thermochemistry -
 -------------------
 Temperature   298.150 Kelvin.  Pressure   1.00000 Atm.
 Atom     1 has atomic number  6 and mass  12.00000

 Molecular mass:    27.02348 amu.
 Principal axes and moments of inertia in atomic units:
                           1         2         3
     Eigenvalues --     7.55518  55.01785  62.57303
           X           -0.08038   0.99676   0.00000
           Y            0.99676   0.08038   0.00000
           Z           -0.00000   0.00000   1.00000
 This molecule is an asymmetric top.
 Rotational symmetry number  1.
 Rotational temperatures (Kelvin)     11.46418     1.57429     1.38421
 Rotational constants (GHZ):         238.87472    32.80283    28.84216
 Zero-point vibrational energy      95633.0 (Joules/Mol)
                                   22.85684 (Kcal/Mol)
 Vibrational temperatures:   1023.43  1186.52  1339.61  1508.50  2008.36
          (Kelvin)           2375.24  4378.53  4518.41  4665.42

 Zero-point correction=                           0.036425 (Hartree/Particle)
 Thermal correction to Energy=                    0.039526
 Thermal correction to Enthalpy=                  0.040470
 Thermal correction to Gibbs Free Energy=         0.013955
 Sum of electronic and zero-point Energies=            -77.902313
 Sum of electronic and thermal Energies=               -77.899212
 Sum of electronic and thermal Enthalpies=             -77.898268
 Sum of electronic and thermal Free Energies=          -77.924783

                     E (Thermal)             CV                S
                      KCal/Mol        Cal/Mol-Kelvin    Cal/Mol-Kelvin
 Total                   24.803              8.318             55.805
 Electronic               0.000              0.000              1.377
 Translational            0.889              2.981             35.818
 Rotational               0.889              2.981             17.904
 Vibrational             23.025              2.356              0.706

                           ! Non-Optimized Parameters !
 Normal termination of Gaussian 16 at Fri Sep 29 17:49:33 2023.
 Gaussian 16:  ES64L-G16RevB.01 20-Dec-2017

 ---------------------------------
 # rohf/gen geom=check guess=check
 ---------------------------------

 -----------------------
 vinyl, ROHF/cc-pVTZ-F12
 -----------------------
 Structure from the checkpoint file:  "c2h3.chk"
 Charge =  0 Multiplicity = 2

                         Standard orientation:
 ---------------------------------------------------------------------
 Center     Atomic      Atomic             Coordinates (Angstroms)
 Number     Number       Type             X           Y           Z
 ---------------------------------------------------------------------
      1          6           0        0.048036    0.717034    0.000000
      2          6           0        0.048036   -0.584152    0.000000
      3          1           0       -0.661561    1.528307    0.000000
      4          1           0       -0.879450   -1.159568    0.000000
      5          1           0        0.964580   -1.166033    0.000000
 ---------------------------------------------------------------------

 SCF Done:  E(ROHF) =  -77.4168303009     A.U. after   15 cycles

 The electronic state is 2-A'.
 Alpha  occ. eigenvalues --  -11.24497 -11.23490  -1.02485  -0.76218  -0.62309
 Alpha  occ. eigenvalues --   -0.57967  -0.38851  -0.08750
 Alpha virt. eigenvalues --    0.05278   0.06477   0.07502   0.08600   0.08927
 Alpha virt. eigenvalues --    0.10021   0.11335   0.17899   0.18704   0.20917
 Alpha virt. eigenvalues --    0.23803   0.27084   0.33364   0.36527   0.39556

 Mulliken charges and spin densities:
               1          2
     1  C   -0.165793   0.919524
     2  C   -0.299947   0.016190
     3  H    0.180119   0.028846
     4  H    0.127914   0.024651
     5  H    0.157707   0.010789
 Sum of Mulliken charges =  -0.00000   1.00000

 Dipole moment (field-independent basis, Debye):
    X=             -0.5886    Y=             -0.2118    Z=              0.0000  Tot=              0.6256
 Quadrupole moment (field-independent basis, Debye-Ang):
   XX=            -12.5041   YY=            -11.2247   ZZ=            -15.1631
   XY=             -1.1764   XZ=              0.0000   YZ=              0.0000

 Normal termination of Gaussian 16 at Fri Sep 29 17:49:41 2023.
