 Gaussian 16, Revision B.01,

 ---------------------------------------
 # b3lyp/gen opt freq CPHF(Grid=OneStep)
 ---------------------------------------

 ---------------------
 C2H3Cl, B3LYP/pcseg-2
 ---------------------
 Symbolic Z-matrix:
 Charge =  0 Multiplicity = 1

 SCF Done:  E(RB3LYP) =  -538.262487279     A.U. after   12 cycles
 Optimization completed.
    -- Stationary point found.
 Normal termination of Gaussian 16 at Sat Sep 30 04:36:23 2023.

 ------------------------------------------------------------------
 #N Geom=AllCheck Guess=TCheck SCRF=Check GenChk RB3LYP/ChkBas Freq
 ------------------------------------------------------------------

 Structure from the checkpoint file:  "c2h3cl.chk"
 ---------------------
 C2H3Cl, B3LYP/pcseg-2
 ---------------------
 Charge =  0 Multiplicity = 1

 SCF Done:  E(RB3LYP) =  -538.262487279     A.U. after    1 cycles

  Exact polarizability:  43.552  10.050  40.986   0.000   0.000  23.406
 Approx polarizability:  66.541  15.458  58.590  -0.000  -0.000  33.347

                      1                      2                      3
                     A'                     A"                     A'
 Frequencies --    400.1984               638.9476               706.6511
 Red. masses --      2.9773                 1.4193                 4.2573
 Frc consts  --      0.2809                 0.3414                 1.2525
 IR Inten    --      0.2692                14.8184                46.1973

                      4                      5                      6
                     A"                     A"                     A'
 Frequencies --    937.8710               981.3822              1044.6396
 Red. masses --      1.3738                 1.0857                 1.4333
 Frc consts  --      0.7120                 0.6161                 0.9215
 IR Inten    --     39.5483                31.8970                17.0669

                      7                      8                      9
                     A'                     A'                     A'
 Frequencies --   1307.9824              1410.3068              1665.0502
 Red. masses --      1.1844                 1.1865                 4.3342
 Frc consts  --      1.1939                 1.3904                 7.0796
 IR Inten    --     11.6357                 9.9857                63.3468

                     10                     11                     12
                     A'                     A'                     A'
 Frequencies --   3152.7330              3204.3422              3243.4528
 Red. masses --      1.0578                 1.0967                 1.1161
 Frc consts  --      6.1950                 6.6349                 6.9180
 IR Inten    --      0.0376                 3.9324                 2.3729

 - Thermochemistry -
 -------------------
 Temperature   298.150 Kelvin.  Pressure   1.00000 Atm.
 Atom     1 has atomic number  6 and mass  12.00000

 Molecular mass:    61.99233 amu.
 Principal axes and moments of inertia in atomic units:
                           1         2         3
     Eigenvalues --    31.00760 302.75380 333.76140
           X            0.64938   0.76046   0.00000
           Y            0.76046  -0.64938   0.00000
           Z            0.00000  -0.00000   1.00000
 This molecule is an asymmetric top.
 Rotational symmetry number  1.
 Rotational temperatures (Kelvin)      2.79331     0.28609     0.25951
 Rotational constants (GHZ):          58.20319     5.96109     5.40728
 Zero-point vibrational energy     111812.3 (Joules/Mol)
                                   26.72378 (Kcal/Mol)
 Warning -- explicit consideration of   1 degrees of freedom as
           vibrations may cause significant error
 Vibrational temperatures:    575.80   919.30  1016.71  1349.39  1411.99
          (Kelvin)           1503.00  1881.89  2029.12  2395.64  4536.08
                             4610.33  4666.61

 Zero-point correction=                           0.042587 (Hartree/Particle)
 Thermal correction to Energy=                    0.046116
 Thermal correction to Enthalpy=                  0.047060
 Thermal correction to Gibbs Free Energy=         0.017149
 Sum of electronic and zero-point Energies=           -538.219900
 Sum of electronic and thermal Energies=              -538.216371
 Sum of electronic and thermal Enthalpies=            -538.215427
 Sum of electronic and thermal Free Energies=         -538.245338

                     E (Thermal)             CV                S
                      KCal/Mol        Cal/Mol-Kelvin    Cal/Mol-Kelvin
 Total                   28.938             10.666             62.953
 Electronic               0.000              0.000              0.000
 Translational            0.889              2.981             38.293
 Rotational               0.889              2.981             22.665
 Vibrational             27.161              4.704              1.996
 Vibration     1          0.766              1.470              0.962

                           ! Non-Optimized Parameters !
 Normal termination of Gaussian 16 at Sat Sep 30 04:37:27 2023.
 Gaussian 16:  ES64L-G16RevB.01 20-Dec-2017

 ---------------------------------
 # rohf/gen geom=check guess=check
 ---------------------------------

 ------------------------
 C2H3Cl, ROHF/cc-pVTZ-F12
 ------------------------
 Structure from the checkpoint file:  "c2h3cl.chk"
 Charge =  0 Multiplicity = 1

                         Standard orientation:
 ---------------------------------------------------------------------
 Center     Atomic      Atomic             Coordinates (Angstroms)
 Number     Number       Type             X           Y           Z
 ---------------------------------------------------------------------
      1          6           0        1.288253    1.047844    0.000000
      2          6           0        0.000000    0.759985    0.000000
      3          1           0        1.601513    2.082872    0.000000
      4          1           0        2.053304    0.284875    0.000000
      5          1           0       -0.784061    1.502380    0.000000
      6         17           0       -0.623546   -0.865712    0.000000
 ---------------------------------------------------------------------

 SCF Done:  E(ROHF) =  -537.010928735     A.U. after   11 cycles

 The electronic state is 1-A'.
 Alpha  occ. eigenvalues -- -104.84040 -11.30202 -11.24664 -10.56545  -8.03248
 Alpha  occ. eigenvalues --   -8.03090  -8.03088  -1.15563  -1.01794  -0.79428
 Alpha  occ. eigenvalues --   -0.66368  -0.61780  -0.52936  -0.51084  -0.45470
 Alpha  occ. eigenvalues --   -0.37472
 Alpha virt. eigenvalues --    0.05138   0.05652   0.06471   0.07777   0.08463
 Alpha virt. eigenvalues --    0.09448   0.11033   0.12374   0.12730   0.14310
 Alpha virt. eigenvalues --    0.16122   0.18175   0.19667   0.22007   0.23628

 Mulliken charges and spin densities:
               1          2
     1  C   -0.307586   0.000000
     2  C   -0.148513   0.000000
     3  H    0.143188   0.000000
     4  H    0.161289   0.000000
     5  H    0.221842   0.000000
     6  Cl  -0.070220   0.000000
 Sum of Mulliken charges =  -0.00000   0.00000

 Dipole moment (field-independent basis, Debye):
    X=              0.7364    Y=              1.5246    Z=              0.0000  Tot=              1.6931
 Quadrupole moment (field-independent basis, Debye-Ang):
   XX=            -23.4994   YY=            -23.3308   ZZ=            -27.4986
   XY=             -0.1504   XZ=              0.0000   YZ=              0.0000

 Normal termination of Gaussian 16 at Sat Sep 30 04:37:45 2023.
