 Gaussian 16, Revision B.01,
 Gaussian 16:  ES64L-G16RevB.01 20-Dec-2017

 --------------------
 # b3lyp/gen opt freq
 --------------------

 ----------------------
 vinoxyl, B3LYP/pcseg-2
 ----------------------
 Symbolic Z-matrix:
 Charge =  0 Multiplicity = 2

 SCF Done:  E(UB3LYP) =  -153.239776475     A.U. after   16 cycles
 SCF Done:  E(UB3LYP) =  -153.239830519     A.U. after   10 cycles
 SCF Done:  E(UB3LYP) =  -153.239832631     A.U. after    9 cycles
 SCF Done:  E(UB3LYP) =  -153.239833091     A.U. after    9 cycles
 Optimization completed.
    -- Stationary point found.
 Normal termination of Gaussian 16 at Thu Jun 16 12:26:51 2022.

 ------------------------------------------------------------------
 #N Geom=AllCheck Guess=TCheck SCRF=Check GenChk UB3LYP/ChkBas Freq
 ------------------------------------------------------------------

 Structure from the checkpoint file:  "/wrk/irikura/Gau-32076.chk"
 ----------------------
 vinoxyl, B3LYP/pcseg-2
 ----------------------
 Charge =  0 Multiplicity = 2

                         Standard orientation:
 ---------------------------------------------------------------------
 Center     Atomic      Atomic             Coordinates (Angstroms)
 Number     Number       Type             X           Y           Z
 ---------------------------------------------------------------------
      1          6           0        0.000000    0.426302    0.000000
      2          1           0        0.287566    1.491330    0.000000
      3          6           0        1.055248   -0.523636    0.000000
      4          8           0       -1.191126    0.110050    0.000000
      5          1           0        2.089527   -0.208810    0.000000
      6          1           0        0.820430   -1.578917    0.000000
 ---------------------------------------------------------------------

 SCF Done:  E(UB3LYP) =  -153.239833091     A.U. after    1 cycles

 The electronic state is 2-A".
 Alpha  occ. eigenvalues --  -19.13745 -10.26186 -10.22609  -1.05658  -0.77366
 Alpha  occ. eigenvalues --   -0.59280  -0.50866  -0.46399  -0.42725  -0.42462
 Alpha  occ. eigenvalues --   -0.28164  -0.28079
 Alpha virt. eigenvalues --   -0.01213   0.01956   0.03959   0.07084   0.11510
 Alpha virt. eigenvalues --    0.14223   0.14958   0.18664   0.21751   0.26314
 Alpha virt. eigenvalues --    0.26435   0.29719   0.30677   0.34623   0.36428

  Beta  occ. eigenvalues --  -19.12768 -10.26410 -10.21455  -1.03948  -0.74638
  Beta  occ. eigenvalues --   -0.58543  -0.50211  -0.45531  -0.41840  -0.38758
  Beta  occ. eigenvalues --   -0.27206
  Beta virt. eigenvalues --   -0.14919   0.01658   0.02137   0.04089   0.07156
  Beta virt. eigenvalues --    0.11607   0.14239   0.16184   0.19380   0.23265
  Beta virt. eigenvalues --    0.26493   0.27478   0.30266   0.31058   0.35067

 Mulliken charges and spin densities:
               1          2
     1  C    0.264530  -0.123768
     2  H   -0.002729  -0.000150
     3  C   -0.038783   0.834095
     4  O   -0.373478   0.348930
     5  H    0.068501  -0.028786
     6  H    0.081958  -0.030322
 Sum of Mulliken charges =  -0.00000   1.00000

 Dipole moment (field-independent basis, Debye):
    X=              3.0361    Y=              0.0087    Z=              0.0000  Tot=              3.0361
 Quadrupole moment (field-independent basis, Debye-Ang):
   XX=            -19.7624   YY=            -16.5054   ZZ=            -18.5146
   XY=             -0.1788   XZ=              0.0000   YZ=              0.0000

  Exact polarizability:  37.603  -2.578  28.791  -0.000   0.000  17.994
 Approx polarizability:  56.637  -2.145  36.430  -0.000  -0.000  24.231

                      1                      2                      3
                     A"                     A'                     A"
 Frequencies --    445.5411               507.7115               764.3918
 Red. masses --      1.2020                 2.3785                 1.2020
 Frc consts  --      0.1406                 0.3612                 0.4138
 IR Inten    --      0.3587                12.2421                37.6849

                      4                      5                      6
                     A'                     A"                     A'
 Frequencies --    980.2497               981.6866              1159.2148
 Red. masses --      1.7952                 1.6284                 2.6684
 Frc consts  --      1.0163                 0.9246                 2.1127
 IR Inten    --      3.1434                 0.7383                22.1409

                      7                      8                      9
                     A'                     A'                     A'
 Frequencies --   1399.6617              1474.6750              1546.5833
 Red. masses --      1.2823                 1.2924                 4.9783
 Frc consts  --      1.4801                 1.6559                 7.0158
 IR Inten    --     14.5235                12.1237                43.6339

                     10                     11                     12
                     A'                     A'                     A'
 Frequencies --   2945.2406              3145.8112              3258.9491
 Red. masses --      1.0839                 1.0519                 1.1199
 Frc consts  --      5.5395                 6.1330                 7.0075
 IR Inten    --     86.8449                 2.0629                 2.6267

 - Thermochemistry -
 -------------------
 Temperature   298.150 Kelvin.  Pressure   1.00000 Atm.
 Atom     1 has atomic number  6 and mass  12.00000

 Molecular mass:    43.01839 amu.
 Principal axes and moments of inertia in atomic units:
                           1         2         3
     Eigenvalues --    26.66179 157.05364 183.71543
           X            0.95811   0.28638   0.00000
           Y           -0.28638   0.95811   0.00000
           Z           -0.00000   0.00000   1.00000
 This molecule is an asymmetric top.
 Rotational symmetry number  1.
 Rotational temperatures (Kelvin)      3.24862     0.55149     0.47146
 Rotational constants (GHZ):          67.69017    11.49124     9.82357
 Zero-point vibrational energy     111310.8 (Joules/Mol)
                                   26.60393 (Kcal/Mol)
 Warning -- explicit consideration of   2 degrees of freedom as
           vibrations may cause significant error
 Vibrational temperatures:    641.03   730.48  1099.79  1410.36  1412.43
          (Kelvin)           1667.85  2013.80  2121.73  2225.19  4237.54
                             4526.12  4688.90

 Zero-point correction=                           0.042396 (Hartree/Particle)
 Thermal correction to Energy=                    0.045920
 Thermal correction to Enthalpy=                  0.046864
 Thermal correction to Gibbs Free Energy=         0.017487
 Sum of electronic and zero-point Energies=           -153.197437
 Sum of electronic and thermal Energies=              -153.193913
 Sum of electronic and thermal Enthalpies=            -153.192969
 Sum of electronic and thermal Free Energies=         -153.222346

                     E (Thermal)             CV                S
                      KCal/Mol        Cal/Mol-Kelvin    Cal/Mol-Kelvin
 Total                   28.815             10.558             61.829
 Electronic               0.000              0.000              1.377
 Translational            0.889              2.981             37.204
 Rotational               0.889              2.981             21.269
 Vibrational             27.038              4.597              1.978
 Vibration     1          0.805              1.371              0.809
 Vibration     2          0.863              1.233              0.639

 Optimization completed.
    -- Stationary point found.
 Normal termination of Gaussian 16 at Thu Jun 16 12:27:20 2022.
