 Gaussian 16, Revision B.01,
 Gaussian 16:  ES64L-G16RevB.01 20-Dec-2017

 --------------------
 # b3lyp/gen opt freq
 --------------------

 ----------------------------
 vinyl alcohol, B3LYP/pcseg-2
 ----------------------------
 Symbolic Z-matrix:
 Charge =  0 Multiplicity = 1

 SCF Done:  E(RB3LYP) =  -153.884586161     A.U. after   12 cycles
 SCF Done:  E(RB3LYP) =  -153.884603188     A.U. after    8 cycles
 Optimization completed.
    -- Stationary point found.
 Normal termination of Gaussian 16 at Sat Jun 18 12:25:38 2022.

 ------------------------------------------------------------------
 #N Geom=AllCheck Guess=TCheck SCRF=Check GenChk RB3LYP/ChkBas Freq
 ------------------------------------------------------------------

 Structure from the checkpoint file:  "/wrk/irikura/Gau-5102.chk"
 ----------------------------
 vinyl alcohol, B3LYP/pcseg-2
 ----------------------------
 Charge =  0 Multiplicity = 1

                         Standard orientation:
 ---------------------------------------------------------------------
 Center     Atomic      Atomic             Coordinates (Angstroms)
 Number     Number       Type             X           Y           Z
 ---------------------------------------------------------------------
      1          6           0        1.211429   -0.101127    0.000000
      2          6           0        0.000000    0.441057    0.000000
      3          8           0       -1.190521   -0.217626    0.000000
      4          1           0        1.366578   -1.172803    0.000000
      5          1           0        2.084694    0.531871    0.000000
      6          1           0       -0.159821    1.510785    0.000000
      7          1           0       -1.035856   -1.168422    0.000000
 ---------------------------------------------------------------------

 SCF Done:  E(RB3LYP) =  -153.884603188     A.U. after    1 cycles

 The electronic state is 1-A'.
 Alpha  occ. eigenvalues --  -19.16105 -10.23508 -10.16001  -1.06805  -0.75796
 Alpha  occ. eigenvalues --   -0.62910  -0.50518  -0.48980  -0.40223  -0.39287
 Alpha  occ. eigenvalues --   -0.37874  -0.24600
 Alpha virt. eigenvalues --    0.00895   0.01341   0.03760   0.05480   0.08705
 Alpha virt. eigenvalues --    0.13528   0.16911   0.18245   0.20749   0.24888
 Alpha virt. eigenvalues --    0.24930   0.26329   0.30386   0.33041   0.34130

 Mulliken charges:
               1
     1  C   -0.184355
     2  C    0.200434
     3  O   -0.355165
     4  H    0.039023
     5  H    0.051311
     6  H    0.055288
     7  H    0.193464
 Sum of Mulliken charges =  -0.00000

 Dipole moment (field-independent basis, Debye):
    X=              0.5501    Y=             -0.8126    Z=              0.0000  Tot=              0.9813
 Quadrupole moment (field-independent basis, Debye-Ang):
   XX=            -20.4694   YY=            -14.6062   ZZ=            -21.1380
   XY=              1.2652   XZ=              0.0000   YZ=              0.0000

  Exact polarizability:  39.758  -2.460  28.952   0.000  -0.000  21.075
 Approx polarizability:  58.954  -6.517  39.614  -0.000  -0.000  28.040

                      1                      2                      3
                     A"                     A'                     A"
 Frequencies --    459.3745               491.6808               714.1006
 Red. masses --      1.1213                 2.0522                 1.4864
 Frc consts  --      0.1394                 0.2923                 0.4466
 IR Inten    --     96.7355                12.6234                 1.5663

                      4                      5                      6
                     A"                     A'                     A"
 Frequencies --    840.2438               961.4814               999.0420
 Red. masses --      1.3733                 1.7543                 1.1569
 Frc consts  --      0.5713                 0.9555                 0.6803
 IR Inten    --     75.4472                15.8514                32.6763

                      7                      8                      9
                     A'                     A'                     A'
 Frequencies --   1118.8117              1326.0937              1352.8255
 Red. masses --      2.0540                 1.5434                 1.2314
 Frc consts  --      1.5148                 1.5991                 1.3278
 IR Inten    --    192.3718                 1.8452                 9.5716

                     10                     11                     12
                     A'                     A'                     A'
 Frequencies --   1451.1873              1697.4971              3147.7936
 Red. masses --      1.1618                 4.2575                 1.0625
 Frc consts  --      1.4416                 7.2281                 6.2029
 IR Inten    --     14.0862               177.3751                 5.5389

                     13                     14                     15
                     A'                     A'                     A'
 Frequencies --   3192.3212              3246.1325              3795.2441
 Red. masses --      1.0932                 1.1129                 1.0653
 Frc consts  --      6.5639                 6.9093                 9.0408
 IR Inten    --      4.8858                 7.5007                36.8096

 - Thermochemistry -
 -------------------
 Temperature   298.150 Kelvin.  Pressure   1.00000 Atm.
 Atom     1 has atomic number  6 and mass  12.00000

 Molecular mass:    44.02621 amu.
 Principal axes and moments of inertia in atomic units:
                           1         2         3
     Eigenvalues --    29.65560 170.67123 200.32683
           X            0.99676  -0.08048   0.00000
           Y            0.08048   0.99676   0.00000
           Z            0.00000   0.00000   1.00000
 This molecule is an asymmetric top.
 Rotational symmetry number  1.
 Rotational temperatures (Kelvin)      2.92066     0.50749     0.43236
 Rotational constants (GHZ):          60.85668    10.57437     9.00898
 Zero-point vibrational energy     148300.0 (Joules/Mol)
                                   35.44456 (Kcal/Mol)
 Warning -- explicit consideration of   2 degrees of freedom as
           vibrations may cause significant error
 Vibrational temperatures:    660.94   707.42  1027.43  1208.92  1383.36
          (Kelvin)           1437.40  1609.72  1907.95  1946.41  2087.93
                             2442.32  4528.97  4593.04  4670.46  5460.51

 Zero-point correction=                           0.056485 (Hartree/Particle)
 Thermal correction to Energy=                    0.060108
 Thermal correction to Enthalpy=                  0.061052
 Thermal correction to Gibbs Free Energy=         0.032042
 Sum of electronic and zero-point Energies=           -153.828119
 Sum of electronic and thermal Energies=              -153.824495
 Sum of electronic and thermal Enthalpies=            -153.823551
 Sum of electronic and thermal Free Energies=         -153.852561

                     E (Thermal)             CV                S
                      KCal/Mol        Cal/Mol-Kelvin    Cal/Mol-Kelvin
 Total                   37.718             11.409             61.057
 Electronic               0.000              0.000              0.000
 Translational            0.889              2.981             37.273
 Rotational               0.889              2.981             21.544
 Vibrational             35.941              5.448              2.241
 Vibration     1          0.817              1.340              0.768
 Vibration     2          0.847              1.268              0.679

 Optimization completed.
    -- Stationary point found.
 Normal termination of Gaussian 16 at Sat Jun 18 12:26:06 2022.
