 Gaussian 16, Revision B.01,

 ---------------------------------------
 # b3lyp/gen opt freq CPHF(Grid=OneStep)
 ---------------------------------------

 --------------------------
 vinyl amine, B3LYP/pcseg-2
 --------------------------
 Symbolic Z-matrix:
 Charge =  0 Multiplicity = 1

 SCF Done:  E(RB3LYP) =  -134.011577166     A.U. after   12 cycles
 Optimization completed.
    -- Stationary point found.
 Normal termination of Gaussian 16 at Fri Sep 29 20:12:53 2023.

 ------------------------------------------------------------------
 #N Geom=AllCheck Guess=TCheck SCRF=Check GenChk RB3LYP/ChkBas Freq
 ------------------------------------------------------------------

 Structure from the checkpoint file:  "c2h3nh2.chk"
 --------------------------
 vinyl amine, B3LYP/pcseg-2
 --------------------------
 Charge =  0 Multiplicity = 1

 SCF Done:  E(RB3LYP) =  -134.011577166     A.U. after    1 cycles

  Exact polarizability:  48.790  -3.727  32.296   0.061  -0.051  25.087
 Approx polarizability:  70.198  -8.590  44.812   0.778  -0.091  33.844

                      1                      2                      3
                      A                      A                      A
 Frequencies --    354.9487               469.4639               552.4915
 Red. masses --      1.0797                 1.9069                 1.1911
 Frc consts  --      0.0801                 0.2476                 0.2142
 IR Inten    --     53.8074                 3.1697               262.9110

                      4                      5                      6
                      A                      A                      A
 Frequencies --    703.1826               826.7219               965.1283
 Red. masses --      1.5657                 1.4124                 1.3524
 Frc consts  --      0.4561                 0.5688                 0.7422
 IR Inten    --      7.5923                76.9234                 4.2736

                      7                      8                      9
                      A                      A                      A
 Frequencies --   1003.2677              1072.5268              1285.5454
 Red. masses --      1.1665                 1.7081                 2.0987
 Frc consts  --      0.6918                 1.1576                 2.0435
 IR Inten    --     24.3934                17.7898                47.5414

                     10                     11                     12
                      A                      A                      A
 Frequencies --   1339.2575              1457.3485              1651.2893
 Red. masses --      1.2060                 1.1759                 1.1720
 Frc consts  --      1.2745                 1.4715                 1.8829
 IR Inten    --     11.7197                 1.6499                22.4465

                     13                     14                     15
                      A                      A                      A
 Frequencies --   1705.0198              3148.0259              3159.6965
 Red. masses --      3.6496                 1.0606                 1.0913
 Frc consts  --      6.2511                 6.1927                 6.4193
 IR Inten    --    183.1634                 8.1294                 8.2915

                     16                     17                     18
                      A                      A                      A
 Frequencies --   3244.2728              3565.3268              3669.8865
 Red. masses --      1.1130                 1.0471                 1.0991
 Frc consts  --      6.9023                 7.8425                 8.7212
 IR Inten    --     10.6870                15.1261                18.2362

 - Thermochemistry -
 -------------------
 Temperature   298.150 Kelvin.  Pressure   1.00000 Atm.
 Atom     1 has atomic number  6 and mass  12.00000

 Molecular mass:    43.04220 amu.
 Principal axes and moments of inertia in atomic units:
                           1         2         3
     Eigenvalues --    31.33901 179.79662 209.75928
           X            0.99989  -0.00282  -0.01480
           Y            0.00269   0.99996  -0.00886
           Z            0.01483   0.00882   0.99985
 This molecule is an asymmetric top.
 Rotational symmetry number  1.
 Rotational temperatures (Kelvin)      2.76377     0.48173     0.41292
 Rotational constants (GHZ):          57.58769    10.03768     8.60387
 Zero-point vibrational energy     180477.0 (Joules/Mol)
                                   43.13504 (Kcal/Mol)
 Warning -- explicit consideration of   3 degrees of freedom as
           vibrations may cause significant error
 Vibrational temperatures:    510.69   675.45   794.91  1011.72  1189.47
          (Kelvin)           1388.60  1443.48  1543.13  1849.61  1926.89
                             2096.80  2375.84  2453.14  4529.31  4546.10
                             4667.78  5129.71  5280.15

 Zero-point correction=                           0.068740 (Hartree/Particle)
 Thermal correction to Energy=                    0.072685
 Thermal correction to Enthalpy=                  0.073629
 Thermal correction to Gibbs Free Energy=         0.044095
 Sum of electronic and zero-point Energies=           -133.942837
 Sum of electronic and thermal Energies=              -133.938892
 Sum of electronic and thermal Enthalpies=            -133.937948
 Sum of electronic and thermal Free Energies=         -133.967482

                     E (Thermal)             CV                S
                      KCal/Mol        Cal/Mol-Kelvin    Cal/Mol-Kelvin
 Total                   45.610             12.957             62.160
 Electronic               0.000              0.000              0.000
 Translational            0.889              2.981             37.205
 Rotational               0.889              2.981             21.696
 Vibrational             43.833              6.995              3.258
 Vibration     1          0.731              1.565              1.144
 Vibration     2          0.827              1.318              0.739
 Vibration     3          0.908              1.134              0.539

                           ! Non-Optimized Parameters !
 Normal termination of Gaussian 16 at Fri Sep 29 20:15:38 2023.
 Gaussian 16:  ES64L-G16RevB.01 20-Dec-2017

 ---------------------------------
 # rohf/gen geom=check guess=check
 ---------------------------------

 -----------------------------
 vinyl amine, ROHF/cc-pVTZ-F12
 -----------------------------
 Structure from the checkpoint file:  "c2h3nh2.chk"
 Charge =  0 Multiplicity = 1

                         Standard orientation:
 ---------------------------------------------------------------------
 Center     Atomic      Atomic             Coordinates (Angstroms)
 Number     Number       Type             X           Y           Z
 ---------------------------------------------------------------------
      1          6           0        1.249119   -0.195815    0.013977
      2          6           0        0.069459    0.426632   -0.000637
      3          7           0       -1.181189   -0.169222   -0.078053
      4          1           0        1.329947   -1.275279    0.018085
      5          1           0        2.165063    0.373120    0.005217
      6          1           0        0.029151    1.509624   -0.008963
      7          1           0       -1.220592   -1.153763    0.130775
      8          1           0       -1.946718    0.345947    0.321218
 ---------------------------------------------------------------------

 SCF Done:  E(ROHF) =  -133.129561171     A.U. after   11 cycles

 The electronic state is 1-A.
 Alpha  occ. eigenvalues --  -15.56253 -11.26742 -11.19709  -1.21159  -0.99487
 Alpha  occ. eigenvalues --   -0.79115  -0.70237  -0.63838  -0.57400  -0.51892
 Alpha  occ. eigenvalues --   -0.49491  -0.31674
 Alpha virt. eigenvalues --    0.04966   0.05544   0.06494   0.08824   0.08883
 Alpha virt. eigenvalues --    0.09944   0.10916   0.13767   0.13965   0.15558
 Alpha virt. eigenvalues --    0.18718   0.20168   0.20713   0.22824   0.25452

 Mulliken charges and spin densities:
               1          2
     1  C   -0.371781   0.000000
     2  C    0.128166   0.000000
     3  N   -0.675392   0.000000
     4  H    0.120729   0.000000
     5  H    0.139160   0.000000
     6  H    0.151840   0.000000
     7  H    0.260009   0.000000
     8  H    0.247269   0.000000
 Sum of Mulliken charges =  -0.00000   0.00000

 Dipole moment (field-independent basis, Debye):
    X=             -1.2367    Y=              0.0423    Z=              0.9028  Tot=              1.5317
 Quadrupole moment (field-independent basis, Debye-Ang):
   XX=            -17.7121   YY=            -16.3980   ZZ=            -23.0931
   XY=              0.0076   XZ=             -1.9687   YZ=             -0.1442

 Normal termination of Gaussian 16 at Fri Sep 29 20:16:27 2023.
