 Gaussian 16, Revision B.01,
 Gaussian 16:  ES64L-G16RevB.01 20-Dec-2017

 --------------------
 # b3lyp/gen opt freq
 --------------------

 ----------------------------
 acrylonitrile, B3LYP/pcseg-2
 ----------------------------
 Symbolic Z-matrix:
 Charge =  0 Multiplicity = 1

 SCF Done:  E(RB3LYP) =  -170.902444104     A.U. after   13 cycles
 SCF Done:  E(RB3LYP) =  -170.902544291     A.U. after    9 cycles
 SCF Done:  E(RB3LYP) =  -170.902477861     A.U. after   11 cycles
 SCF Done:  E(RB3LYP) =  -170.902550699     A.U. after    7 cycles
 Optimization completed.
    -- Stationary point found.
 Normal termination of Gaussian 16 at Wed Jun 15 15:45:08 2022.

 ------------------------------------------------------------------
 #N Geom=AllCheck Guess=TCheck SCRF=Check GenChk RB3LYP/ChkBas Freq
 ------------------------------------------------------------------

 Structure from the checkpoint file:  "/wrk/irikura/Gau-14480.chk"
 ----------------------------
 acrylonitrile, B3LYP/pcseg-2
 ----------------------------
 Charge =  0 Multiplicity = 1

                         Standard orientation:
 ---------------------------------------------------------------------
 Center     Atomic      Atomic             Coordinates (Angstroms)
 Number     Number       Type             X           Y           Z
 ---------------------------------------------------------------------
      1          6           0       -0.575659   -0.536323    0.000000
      2          7           0       -1.064660   -1.579643    0.000000
      3          6           0        0.000000    0.768655   -0.000000
      4          1           0       -0.703985    1.591366   -0.000000
      5          6           0        1.313485    0.984910   -0.000000
      6          1           0        2.024420    0.170965   -0.000000
      7          1           0        1.705231    1.991718   -0.000000
 ---------------------------------------------------------------------

 SCF Done:  E(RB3LYP) =  -170.902550699     A.U. after    1 cycles

 The electronic state is 1-A'.
 Alpha  occ. eigenvalues --  -14.32419 -10.23546 -10.21949 -10.21933  -0.92158
 Alpha  occ. eigenvalues --   -0.82753  -0.66789  -0.54896  -0.49292  -0.42540
 Alpha  occ. eigenvalues --   -0.39380  -0.37541  -0.35022  -0.30358
 Alpha virt. eigenvalues --   -0.07281  -0.00427   0.03507   0.03656   0.05118
 Alpha virt. eigenvalues --    0.08502   0.10917   0.12813   0.14931   0.18129
 Alpha virt. eigenvalues --    0.18773   0.21186   0.21972   0.24030   0.24138

 Mulliken charges:
               1
     1  C    0.072985
     2  N   -0.167923
     3  C   -0.056238
     4  H    0.070712
     5  C   -0.067892
     6  H    0.077926
     7  H    0.070430
 Sum of Mulliken charges =  -0.00000

 Dipole moment (field-independent basis, Debye):
    X=              2.0278    Y=              3.4844    Z=             -0.0000  Tot=              4.0315
 Quadrupole moment (field-independent basis, Debye-Ang):
   XX=            -22.7524   YY=            -26.1871   ZZ=            -24.9899
   XY=             -2.8947   XZ=              0.0000   YZ=              0.0000

  Exact polarizability:  47.854  14.231  47.750   0.000   0.000  24.323
 Approx polarizability:  76.104  26.619  75.399  -0.000  -0.000  33.848

                      1                      2                      3
                     A'                     A"                     A'
 Frequencies --    239.0851               350.6148               583.7586
 Red. masses --      4.0866                 2.6550                 4.0423
 Frc consts  --      0.1376                 0.1923                 0.8116
 IR Inten    --      3.0771                 0.2187                 0.0303

                      4                      5                      6
                     A"                     A'                     A"
 Frequencies --    714.4406               883.1101               996.8670
 Red. masses --      2.2051                 2.8146                 1.2530
 Frc consts  --      0.6631                 1.2933                 0.7336
 IR Inten    --     12.1786                 1.5477                54.2165

                      7                      8                      9
                     A"                     A'                     A'
 Frequencies --   1011.9428              1113.8568              1324.3586
 Red. masses --      1.1595                 1.6463                 1.2906
 Frc consts  --      0.6996                 1.2034                 1.3337
 IR Inten    --      5.6940                 2.6793                 0.3647

                     10                     11                     12
                     A'                     A'                     A'
 Frequencies --   1451.4016              1675.7520              2332.8399
 Red. masses --      1.2148                 4.1162                12.6322
 Frc consts  --      1.5077                 6.8103                40.5041
 IR Inten    --      7.1605                 1.4021                 9.4474

                     13                     14                     15
                     A'                     A'                     A'
 Frequencies --   3158.9540              3173.1186              3250.8521
 Red. masses --      1.0579                 1.0913                 1.1179
 Frc consts  --      6.2196                 6.4738                 6.9608
 IR Inten    --      0.4417                 0.7538                 1.1494

 - Thermochemistry -
 -------------------
 Temperature   298.150 Kelvin.  Pressure   1.00000 Atm.
 Atom     1 has atomic number  6 and mass  12.00000

 Molecular mass:    53.02655 amu.
 Principal axes and moments of inertia in atomic units:
                           1         2         3
     Eigenvalues --    35.07485 362.68178 397.75664
           X            0.64461   0.76451   0.00000
           Y            0.76451  -0.64461   0.00000
           Z            0.00000   0.00000   1.00000
 This molecule is an asymmetric top.
 Rotational symmetry number  1.
 Rotational temperatures (Kelvin)      2.46940     0.23882     0.21776
 Rotational constants (GHZ):          51.45399     4.97610     4.53730
 Zero-point vibrational energy     133150.1 (Joules/Mol)
                                   31.82363 (Kcal/Mol)
 Warning -- explicit consideration of   3 degrees of freedom as
           vibrations may cause significant error
 Vibrational temperatures:    343.99   504.46   839.90  1027.92  1270.60
          (Kelvin)           1434.27  1455.96  1602.59  1905.46  2088.24
                             2411.03  3356.44  4545.03  4565.41  4677.25

 Zero-point correction=                           0.050714 (Hartree/Particle)
 Thermal correction to Energy=                    0.054858
 Thermal correction to Enthalpy=                  0.055802
 Thermal correction to Gibbs Free Energy=         0.024849
 Sum of electronic and zero-point Energies=           -170.851837
 Sum of electronic and thermal Energies=              -170.847693
 Sum of electronic and thermal Enthalpies=            -170.846749
 Sum of electronic and thermal Free Energies=         -170.877702

                     E (Thermal)             CV                S
                      KCal/Mol        Cal/Mol-Kelvin    Cal/Mol-Kelvin
 Total                   34.424             12.990             65.146
 Electronic               0.000              0.000              0.000
 Translational            0.889              2.981             37.827
 Rotational               0.889              2.981             23.141
 Vibrational             32.646              7.029              4.178
 Vibration     1          0.657              1.781              1.810
 Vibration     2          0.728              1.574              1.163
 Vibration     3          0.941              1.066              0.478

 Optimization completed.
    -- Stationary point found.
 Normal termination of Gaussian 16 at Wed Jun 15 15:45:43 2022.
