 Gaussian 16, Revision B.01,
 Gaussian 16:  ES64L-G16RevB.01 20-Dec-2017

 --------------------
 # b3lyp/gen opt freq
 --------------------

 ------------------------------
 vinyl acetylene, B3LYP/pcseg-2
 ------------------------------
 Symbolic Z-matrix:
 Charge =  0 Multiplicity = 1

 SCF Done:  E(RB3LYP) =  -154.802503432     A.U. after   12 cycles
 SCF Done:  E(RB3LYP) =  -154.802521581     A.U. after    9 cycles
 SCF Done:  E(RB3LYP) =  -154.802195839     A.U. after   11 cycles
 SCF Done:  E(RB3LYP) =  -154.802545270     A.U. after    9 cycles
 Optimization completed.
    -- Stationary point found.
 Normal termination of Gaussian 16 at Wed Jun 15 11:37:48 2022.

 ------------------------------------------------------------------
 #N Geom=AllCheck Guess=TCheck SCRF=Check GenChk RB3LYP/ChkBas Freq
 ------------------------------------------------------------------

 Structure from the checkpoint file:  "/wrk/irikura/Gau-13774.chk"
 ------------------------------
 vinyl acetylene, B3LYP/pcseg-2
 ------------------------------
 Charge =  0 Multiplicity = 1

                         Standard orientation:
 ---------------------------------------------------------------------
 Center     Atomic      Atomic             Coordinates (Angstroms)
 Number     Number       Type             X           Y           Z
 ---------------------------------------------------------------------
      1          6           0        0.576384   -0.555306   -0.000000
      2          6           0       -0.000000    0.742709    0.000000
      3          6           0       -0.119928   -1.693466   -0.000000
      4          6           0       -0.453062    1.856624    0.000000
      5          1           0        1.660826   -0.591384    0.000000
      6          1           0        0.383206   -2.649891   -0.000000
      7          1           0       -1.201047   -1.697506   -0.000000
      8          1           0       -0.863348    2.835414    0.000000
 ---------------------------------------------------------------------

 SCF Done:  E(RB3LYP) =  -154.802545270     A.U. after    1 cycles

 The electronic state is 1-A'.
 Alpha  occ. eigenvalues --  -10.20496 -10.18736 -10.18250 -10.17471  -0.81389
 Alpha  occ. eigenvalues --   -0.74220  -0.62827  -0.53827  -0.50230  -0.45869
 Alpha  occ. eigenvalues --   -0.39118  -0.34851  -0.28884  -0.25746
 Alpha virt. eigenvalues --   -0.04604   0.01140   0.03851   0.04775   0.05198
 Alpha virt. eigenvalues --    0.07345   0.08499   0.12684   0.14247   0.15986
 Alpha virt. eigenvalues --    0.16875   0.19877   0.21784   0.21872   0.24606

 Mulliken charges:
               1
     1  C   -0.065993
     2  C    0.160077
     3  C   -0.092924
     4  C   -0.230084
     5  H    0.051949
     6  H    0.054421
     7  H    0.065655
     8  H    0.056898
 Sum of Mulliken charges =  -0.00000

 Dipole moment (field-independent basis, Debye):
    X=              0.0736    Y=             -0.4104    Z=             -0.0000  Tot=              0.4170
 Quadrupole moment (field-independent basis, Debye-Ang):
   XX=            -22.8571   YY=            -19.1209   ZZ=            -26.9976
   XY=             -1.7906   XZ=             -0.0000   YZ=             -0.0000

  Exact polarizability:  37.898  -4.676  77.802  -0.000   0.000  27.543
 Approx polarizability:  54.808  -8.308 128.668   0.000   0.000  37.621

                      1                      2                      3
                     A'                     A"                     A'
 Frequencies --    227.3056               321.8382               560.7438
 Red. masses --      3.0654                 2.3113                 3.3893
 Frc consts  --      0.0933                 0.1411                 0.6279
 IR Inten    --      3.2130                11.0306                 5.8944

                      4                      5                      6
                     A"                     A'                     A"
 Frequencies --    657.0700               681.3558               707.3688
 Red. masses --      1.2817                 1.2652                 1.9188
 Frc consts  --      0.3260                 0.3461                 0.5657
 IR Inten    --     50.1817                48.6818                 3.4178

                      7                      8                      9
                     A'                     A"                     A"
 Frequencies --    893.5113               965.1445              1012.8943
 Red. masses --      2.6215                 1.3306                 1.1211
 Frc consts  --      1.2331                 0.7303                 0.6777
 IR Inten    --      2.3089                48.3497                14.1196

                     10                     11                     12
                     A'                     A'                     A'
 Frequencies --   1114.6251              1325.3267              1449.5179
 Red. masses --      1.6474                 1.2888                 1.2229
 Frc consts  --      1.2059                 1.3338                 1.5139
 IR Inten    --      3.9758                 0.4069                 2.8787

                     13                     14                     15
                     A'                     A'                     A'
 Frequencies --   1666.1915              2201.1576              3140.5143
 Red. masses --      4.0271                 6.1476                 1.0824
 Frc consts  --      6.5871                17.5491                 6.2899
 IR Inten    --     11.2321                 1.1126                 4.5494

                     16                     17                     18
                     A'                     A'                     A'
 Frequencies --   3153.0814              3241.3949              3471.3982
 Red. masses --      1.0640                 1.1174                 1.1565
 Frc consts  --      6.2325                 6.9173                 8.2113
 IR Inten    --      2.9599                 5.4705                72.3380

 - Thermochemistry -
 -------------------
 Temperature   298.150 Kelvin.  Pressure   1.00000 Atm.
 Atom     1 has atomic number  6 and mass  12.00000

 Molecular mass:    52.03130 amu.
 Principal axes and moments of inertia in atomic units:
                           1         2         3
     Eigenvalues --    34.67109 380.30753 414.97862
           X           -0.14541   0.98937   0.00000
           Y            0.98937   0.14541   0.00000
           Z           -0.00000  -0.00000   1.00000
 This molecule is an asymmetric top.
 Rotational symmetry number  1.
 Rotational temperatures (Kelvin)      2.49816     0.22775     0.20872
 Rotational constants (GHZ):          52.05320     4.74548     4.34900
 Zero-point vibrational energy     160242.4 (Joules/Mol)
                                   38.29886 (Kcal/Mol)
 Warning -- explicit consideration of   3 degrees of freedom as
           vibrations may cause significant error
 Vibrational temperatures:    327.04   463.05   806.79   945.38   980.32
          (Kelvin)           1017.75  1285.56  1388.63  1457.33  1603.70
                             1906.85  2085.53  2397.28  3166.97  4518.50
                             4536.58  4663.64  4994.57

 Zero-point correction=                           0.061033 (Hartree/Particle)
 Thermal correction to Energy=                    0.065497
 Thermal correction to Enthalpy=                  0.066442
 Thermal correction to Gibbs Free Energy=         0.035014
 Sum of electronic and zero-point Energies=           -154.741512
 Sum of electronic and thermal Energies=              -154.737048
 Sum of electronic and thermal Enthalpies=            -154.736104
 Sum of electronic and thermal Free Energies=         -154.767531

                     E (Thermal)             CV                S
                      KCal/Mol        Cal/Mol-Kelvin    Cal/Mol-Kelvin
 Total                   41.100             14.933             66.144
 Electronic               0.000              0.000              0.000
 Translational            0.889              2.981             37.771
 Rotational               0.889              2.981             23.219
 Vibrational             39.323              8.971              5.155
 Vibration     1          0.651              1.799              1.900
 Vibration     2          0.707              1.632              1.301
 Vibration     3          0.916              1.116              0.522

 Optimization completed.
    -- Stationary point found.
 Normal termination of Gaussian 16 at Wed Jun 15 11:38:30 2022.
