 Gaussian 16, Revision B.01,
 Gaussian 16:  ES64L-G16RevB.01 20-Dec-2017

 --------------------
 # b3lyp/gen opt freq
 --------------------

 --------------------------
 vinyl amine, B3LYP/pcseg-2
 --------------------------
 Symbolic Z-matrix:
 Charge =  0 Multiplicity = 1

 SCF Done:  E(RB3LYP) =  -134.011436574     A.U. after   12 cycles
 SCF Done:  E(RB3LYP) =  -134.011534898     A.U. after    8 cycles
 SCF Done:  E(RB3LYP) =  -134.011562808     A.U. after    9 cycles
 SCF Done:  E(RB3LYP) =  -134.011575862     A.U. after    9 cycles
 SCF Done:  E(RB3LYP) =  -134.011577166     A.U. after    7 cycles
 Optimization completed.
    -- Stationary point found.
 Normal termination of Gaussian 16 at Sun Sep 10 18:33:40 2023.

 ------------------------------------------------------------------
 #N Geom=AllCheck Guess=TCheck SCRF=Check GenChk RB3LYP/ChkBas Freq
 ------------------------------------------------------------------

 Structure from the checkpoint file:  "/wrk/irikura/Gau-102414.chk"
 --------------------------
 vinyl amine, B3LYP/pcseg-2
 --------------------------
 Charge =  0 Multiplicity = 1

                         Standard orientation:
 ---------------------------------------------------------------------
 Center     Atomic      Atomic             Coordinates (Angstroms)
 Number     Number       Type             X           Y           Z
 ---------------------------------------------------------------------
      1          6           0        1.249119   -0.195815    0.013977
      2          6           0        0.069459    0.426632   -0.000637
      3          7           0       -1.181189   -0.169222   -0.078053
      4          1           0        1.329947   -1.275279    0.018085
      5          1           0        2.165063    0.373120    0.005217
      6          1           0        0.029151    1.509624   -0.008963
      7          1           0       -1.220592   -1.153763    0.130775
      8          1           0       -1.946718    0.345947    0.321218
 ---------------------------------------------------------------------

 SCF Done:  E(RB3LYP) =  -134.011577166     A.U. after    1 cycles

 The electronic state is 1-A.
 Alpha  occ. eigenvalues --  -14.32194 -10.20329 -10.14205  -0.91294  -0.73251
 Alpha  occ. eigenvalues --   -0.58745  -0.52795  -0.47204  -0.41418  -0.36973
 Alpha  occ. eigenvalues --   -0.34709  -0.21448
 Alpha virt. eigenvalues --    0.00990   0.02599   0.03800   0.04928   0.08792
 Alpha virt. eigenvalues --    0.09538   0.16383   0.17797   0.18263   0.20599
 Alpha virt. eigenvalues --    0.24604   0.25538   0.29281   0.30797   0.31973

 Mulliken charges:
               1
     1  C   -0.196775
     2  C    0.119464
     3  N   -0.287097
     4  H    0.032317
     5  H    0.046811
     6  H    0.034112
     7  H    0.122694
     8  H    0.128474
 Sum of Mulliken charges =  -0.00000

 Dipole moment (field-independent basis, Debye):
    X=             -1.3611    Y=             -0.0167    Z=              0.8654  Tot=              1.6130
 Quadrupole moment (field-independent basis, Debye-Ang):
   XX=            -17.6548   YY=            -16.6371   ZZ=            -22.9276
   XY=              0.1769   XZ=             -1.8803   YZ=             -0.1302

  Exact polarizability:  48.789  -3.727  32.296   0.061  -0.051  25.086
 Approx polarizability:  70.198  -8.590  44.812   0.778  -0.091  33.844

                      1                      2                      3
                      A                      A                      A
 Frequencies --    354.9515               469.4618               552.4939
 Red. masses --      1.0797                 1.9070                 1.1911
 Frc consts  --      0.0802                 0.2476                 0.2142
 IR Inten    --     53.8115                 3.1686               262.9060

                      4                      5                      6
                      A                      A                      A
 Frequencies --    703.1807               826.7238               965.1276
 Red. masses --      1.5657                 1.4124                 1.3524
 Frc consts  --      0.4561                 0.5688                 0.7422
 IR Inten    --      7.5927                76.9197                 4.2735

                      7                      8                      9
                      A                      A                      A
 Frequencies --   1003.2688              1072.5276              1285.5439
 Red. masses --      1.1665                 1.7080                 2.0988
 Frc consts  --      0.6918                 1.1576                 2.0435
 IR Inten    --     24.3907                17.7897                47.5398

                     10                     11                     12
                      A                      A                      A
 Frequencies --   1339.2589              1457.3471              1651.2916
 Red. masses --      1.2060                 1.1759                 1.1720
 Frc consts  --      1.2745                 1.4715                 1.8829
 IR Inten    --     11.7191                 1.6495                22.4483

                     13                     14                     15
                      A                      A                      A
 Frequencies --   1705.0281              3148.0238              3159.6957
 Red. masses --      3.6498                 1.0606                 1.0913
 Frc consts  --      6.2515                 6.1927                 6.4193
 IR Inten    --    183.1663                 8.1291                 8.2922

                     16                     17                     18
                      A                      A                      A
 Frequencies --   3244.2732              3565.3251              3669.8864
 Red. masses --      1.1130                 1.0471                 1.0991
 Frc consts  --      6.9022                 7.8425                 8.7212
 IR Inten    --     10.6871                15.1260                18.2369

 - Thermochemistry -
 -------------------
 Temperature   298.150 Kelvin.  Pressure   1.00000 Atm.
 Atom     1 has atomic number  6 and mass  12.00000

 Molecular mass:    43.04220 amu.
 Principal axes and moments of inertia in atomic units:
                           1         2         3
     Eigenvalues --    31.33897 179.79666 209.75928
           X            0.99989  -0.00282  -0.01480
           Y            0.00269   0.99996  -0.00886
           Z            0.01483   0.00882   0.99985
 This molecule is an asymmetric top.
 Rotational symmetry number  1.
 Rotational temperatures (Kelvin)      2.76378     0.48173     0.41292
 Rotational constants (GHZ):          57.58777    10.03768     8.60387
 Zero-point vibrational energy     180477.1 (Joules/Mol)
                                   43.13505 (Kcal/Mol)
 Warning -- explicit consideration of   3 degrees of freedom as
           vibrations may cause significant error
 Vibrational temperatures:    510.70   675.45   794.92  1011.72  1189.47
          (Kelvin)           1388.60  1443.48  1543.13  1849.61  1926.89
                             2096.80  2375.84  2453.16  4529.30  4546.10
                             4667.79  5129.71  5280.15

 Zero-point correction=                           0.068740 (Hartree/Particle)
 Thermal correction to Energy=                    0.072685
 Thermal correction to Enthalpy=                  0.073629
 Thermal correction to Gibbs Free Energy=         0.044095
 Sum of electronic and zero-point Energies=           -133.942837
 Sum of electronic and thermal Energies=              -133.938892
 Sum of electronic and thermal Enthalpies=            -133.937948
 Sum of electronic and thermal Free Energies=         -133.967482

                     E (Thermal)             CV                S
                      KCal/Mol        Cal/Mol-Kelvin    Cal/Mol-Kelvin
 Total                   45.610             12.957             62.160
 Electronic               0.000              0.000              0.000
 Translational            0.889              2.981             37.205
 Rotational               0.889              2.981             21.696
 Vibrational             43.833              6.995              3.258
 Vibration     1          0.731              1.565              1.144
 Vibration     2          0.827              1.318              0.739
 Vibration     3          0.908              1.134              0.539

                           ! Non-Optimized Parameters !
 Normal termination of Gaussian 16 at Sun Sep 10 18:35:06 2023.
