 Gaussian 16, Revision B.01,
 Gaussian 16:  ES64L-G16RevB.01 20-Dec-2017

 --------------------
 # b3lyp/gen opt freq
 --------------------

 ---------------------
 C2H3Cl, B3LYP/pcseg-2
 ---------------------
 Symbolic Z-matrix:
 Charge =  0 Multiplicity = 1

 SCF Done:  E(RB3LYP) =  -538.240518649     A.U. after   13 cycles
 SCF Done:  E(RB3LYP) =  -538.261594552     A.U. after   11 cycles
 SCF Done:  E(RB3LYP) =  -538.262434629     A.U. after   10 cycles
 SCF Done:  E(RB3LYP) =  -538.262480264     A.U. after    8 cycles
 SCF Done:  E(RB3LYP) =  -538.262487279     A.U. after    7 cycles
 Optimization completed.
    -- Stationary point found.
 Normal termination of Gaussian 16 at Wed Feb  2 18:00:30 2022.

 ------------------------------------------------------------------
 #N Geom=AllCheck Guess=TCheck SCRF=Check GenChk RB3LYP/ChkBas Freq
 ------------------------------------------------------------------

 Structure from the checkpoint file:  "/wrk/irikura/Gau-15676.chk"
 ---------------------
 C2H3Cl, B3LYP/pcseg-2
 ---------------------
 Charge =  0 Multiplicity = 1

                         Standard orientation:
 ---------------------------------------------------------------------
 Center     Atomic      Atomic             Coordinates (Angstroms)
 Number     Number       Type             X           Y           Z
 ---------------------------------------------------------------------
      1          6           0        1.288253    1.047844    0.000000
      2          6           0        0.000000    0.759985    0.000000
      3          1           0        1.601513    2.082873    0.000000
      4          1           0        2.053304    0.284876    0.000000
      5          1           0       -0.784061    1.502380    0.000000
      6         17           0       -0.623545   -0.865712   -0.000000
 ---------------------------------------------------------------------

 SCF Done:  E(RB3LYP) =  -538.262487279     A.U. after    1 cycles

 The electronic state is 1-A'.
 Alpha  occ. eigenvalues -- -101.51744 -10.24007 -10.18740  -9.46265  -7.22403
 Alpha  occ. eigenvalues --   -7.21577  -7.21518  -0.87785  -0.75849  -0.59110
 Alpha  occ. eigenvalues --   -0.49551  -0.45922  -0.39127  -0.37366  -0.31939
 Alpha  occ. eigenvalues --   -0.27235
 Alpha virt. eigenvalues --   -0.02145   0.01830   0.03013   0.04620   0.08017
 Alpha virt. eigenvalues --    0.14357   0.16552   0.16682   0.19887   0.24175
 Alpha virt. eigenvalues --    0.24966   0.27390   0.31261   0.31717   0.33427

 Mulliken charges:
               1
     1  C   -0.120209
     2  C    0.010769
     3  H    0.060555
     4  H    0.069208
     5  H    0.094754
     6  Cl  -0.115077
 Sum of Mulliken charges =   0.00000

 Dipole moment (field-independent basis, Debye):
    X=              0.6011    Y=              1.3484    Z=              0.0000  Tot=              1.4763
 Quadrupole moment (field-independent basis, Debye-Ang):
   XX=            -23.7504   YY=            -23.3091   ZZ=            -27.2553
   XY=             -0.1666   XZ=              0.0000   YZ=             -0.0000

  Exact polarizability:  43.553  10.050  40.986  -0.000  -0.000  23.406
 Approx polarizability:  66.541  15.458  58.590   0.000   0.000  33.347

                      1                      2                      3
                     A'                     A"                     A'
 Frequencies --    400.1997               638.9556               706.6494
 Red. masses --      2.9773                 1.4193                 4.2573
 Frc consts  --      0.2809                 0.3414                 1.2526
 IR Inten    --      0.2692                14.8191                46.1977

                      4                      5                      6
                     A"                     A"                     A'
 Frequencies --    937.8715               981.3808              1044.6414
 Red. masses --      1.3738                 1.0857                 1.4333
 Frc consts  --      0.7120                 0.6161                 0.9215
 IR Inten    --     39.5486                31.8976                17.0636

                      7                      8                      9
                     A'                     A'                     A'
 Frequencies --   1307.9816              1410.3075              1665.0525
 Red. masses --      1.1844                 1.1865                 4.3343
 Frc consts  --      1.1939                 1.3904                 7.0798
 IR Inten    --     11.6369                 9.9866                63.3546

                     10                     11                     12
                     A'                     A'                     A'
 Frequencies --   3152.7334              3204.3429              3243.4524
 Red. masses --      1.0578                 1.0967                 1.1161
 Frc consts  --      6.1950                 6.6349                 6.9180
 IR Inten    --      0.0376                 3.9323                 2.3725

 - Thermochemistry -
 -------------------
 Temperature   298.150 Kelvin.  Pressure   1.00000 Atm.
 Atom     1 has atomic number  6 and mass  12.00000

 Molecular mass:    61.99233 amu.
 Principal axes and moments of inertia in atomic units:
                           1         2         3
     Eigenvalues --    31.00757 302.75383 333.76140
           X            0.64938   0.76046   0.00000
           Y            0.76046  -0.64938   0.00000
           Z            0.00000   0.00000   1.00000
 This molecule is an asymmetric top.
 Rotational symmetry number  1.
 Rotational temperatures (Kelvin)      2.79332     0.28609     0.25951
 Rotational constants (GHZ):          58.20325     5.96108     5.40728
 Zero-point vibrational energy     111812.4 (Joules/Mol)
                                   26.72380 (Kcal/Mol)
 Warning -- explicit consideration of   1 degrees of freedom as
           vibrations may cause significant error
 Vibrational temperatures:    575.80   919.31  1016.71  1349.39  1411.99
          (Kelvin)           1503.01  1881.89  2029.12  2395.64  4536.08
                             4610.33  4666.60

 Zero-point correction=                           0.042587 (Hartree/Particle)
 Thermal correction to Energy=                    0.046116
 Thermal correction to Enthalpy=                  0.047060
 Thermal correction to Gibbs Free Energy=         0.017149
 Sum of electronic and zero-point Energies=           -538.219900
 Sum of electronic and thermal Energies=              -538.216371
 Sum of electronic and thermal Enthalpies=            -538.215427
 Sum of electronic and thermal Free Energies=         -538.245338

                     E (Thermal)             CV                S
                      KCal/Mol        Cal/Mol-Kelvin    Cal/Mol-Kelvin
 Total                   28.938             10.666             62.953
 Electronic               0.000              0.000              0.000
 Translational            0.889              2.981             38.293
 Rotational               0.889              2.981             22.665
 Vibrational             27.161              4.704              1.996
 Vibration     1          0.766              1.470              0.962

                           ! Non-Optimized Parameters !
 Normal termination of Gaussian 16 at Wed Feb  2 18:02:57 2022.
