 Gaussian 16, Revision B.01,

 ---------------------------------------
 # b3lyp/gen opt freq CPHF(Grid=OneStep)
 ---------------------------------------

 ----------------------
 vinoxyl, B3LYP/pcseg-2
 ----------------------
 Symbolic Z-matrix:
 Charge =  0 Multiplicity = 2

 SCF Done:  E(UB3LYP) =  -153.239833091     A.U. after   16 cycles
 Optimization completed.
    -- Stationary point found.
 Normal termination of Gaussian 16 at Fri Sep 29 14:49:56 2023.

 ------------------------------------------------------------------
 #N Geom=AllCheck Guess=TCheck SCRF=Check GenChk UB3LYP/ChkBas Freq
 ------------------------------------------------------------------

 Structure from the checkpoint file:  "c2h3o.chk"
 ----------------------
 vinoxyl, B3LYP/pcseg-2
 ----------------------
 Charge =  0 Multiplicity = 2

 SCF Done:  E(UB3LYP) =  -153.239833091     A.U. after    1 cycles

  Exact polarizability:  37.603  -2.578  28.791   0.000   0.000  17.993
 Approx polarizability:  56.637  -2.145  36.430  -0.000  -0.000  24.231

                      1                      2                      3
                     A"                     A'                     A"
 Frequencies --    445.6324               507.7100               764.4183
 Red. masses --      1.2020                 2.3785                 1.2020
 Frc consts  --      0.1406                 0.3612                 0.4138
 IR Inten    --      0.3587                12.2427                37.6860

                      4                      5                      6
                     A'                     A"                     A'
 Frequencies --    980.2503               981.6826              1159.2142
 Red. masses --      1.7952                 1.6284                 2.6684
 Frc consts  --      1.0163                 0.9246                 2.1127
 IR Inten    --      3.1434                 0.7385                22.1407

                      7                      8                      9
                     A'                     A'                     A'
 Frequencies --   1399.6625              1474.6767              1546.5881
 Red. masses --      1.2823                 1.2924                 4.9783
 Frc consts  --      1.4801                 1.6559                 7.0159
 IR Inten    --     14.5238                12.1236                43.6301

                     10                     11                     12
                     A'                     A'                     A'
 Frequencies --   2945.2345              3145.8107              3258.9507
 Red. masses --      1.0839                 1.0519                 1.1199
 Frc consts  --      5.5395                 6.1330                 7.0075
 IR Inten    --     86.8482                 2.0640                 2.6268

 - Thermochemistry -
 -------------------
 Temperature   298.150 Kelvin.  Pressure   1.00000 Atm.
 Atom     1 has atomic number  6 and mass  12.00000

 Molecular mass:    43.01839 amu.
 Principal axes and moments of inertia in atomic units:
                           1         2         3
     Eigenvalues --    26.66176 157.05360 183.71536
           X            0.95811   0.28638   0.00000
           Y           -0.28638   0.95811   0.00000
           Z           -0.00000   0.00000   1.00000
 This molecule is an asymmetric top.
 Rotational symmetry number  1.
 Rotational temperatures (Kelvin)      3.24862     0.55149     0.47146
 Rotational constants (GHZ):          67.69024    11.49124     9.82357
 Zero-point vibrational energy     111311.5 (Joules/Mol)
                                   26.60409 (Kcal/Mol)
 Warning -- explicit consideration of   2 degrees of freedom as
           vibrations may cause significant error
 Vibrational temperatures:    641.17   730.48  1099.83  1410.36  1412.42
          (Kelvin)           1667.85  2013.80  2121.73  2225.20  4237.54
                             4526.12  4688.90

 Zero-point correction=                           0.042396 (Hartree/Particle)
 Thermal correction to Energy=                    0.045920
 Thermal correction to Enthalpy=                  0.046864
 Thermal correction to Gibbs Free Energy=         0.017488
 Sum of electronic and zero-point Energies=           -153.197437
 Sum of electronic and thermal Energies=              -153.193913
 Sum of electronic and thermal Enthalpies=            -153.192969
 Sum of electronic and thermal Free Energies=         -153.222345

                     E (Thermal)             CV                S
                      KCal/Mol        Cal/Mol-Kelvin    Cal/Mol-Kelvin
 Total                   28.815             10.558             61.829
 Electronic               0.000              0.000              1.377
 Translational            0.889              2.981             37.204
 Rotational               0.889              2.981             21.269
 Vibrational             27.038              4.597              1.978
 Vibration     1          0.805              1.371              0.809
 Vibration     2          0.863              1.233              0.639

 Optimization completed.
    -- Stationary point found.
 Normal termination of Gaussian 16 at Fri Sep 29 14:51:47 2023.
 Gaussian 16:  ES64L-G16RevB.01 20-Dec-2017

 ---------------------------------
 # rohf/gen geom=check guess=check
 ---------------------------------

 -------------------------
 vinoxyl, ROHF/cc-pVTZ-F12
 -------------------------
 Structure from the checkpoint file:  "c2h3o.chk"
 Charge =  0 Multiplicity = 2

                         Standard orientation:
 ---------------------------------------------------------------------
 Center     Atomic      Atomic             Coordinates (Angstroms)
 Number     Number       Type             X           Y           Z
 ---------------------------------------------------------------------
      1          6           0        0.000000    0.426302    0.000000
      2          1           0        0.287566    1.491330    0.000000
      3          6           0        1.055248   -0.523636    0.000000
      4          8           0       -1.191126    0.110050    0.000000
      5          1           0        2.089527   -0.208811    0.000000
      6          1           0        0.820429   -1.578917    0.000000
 ---------------------------------------------------------------------

 SCF Done:  E(ROHF) =  -152.353346473     A.U. after   14 cycles

 The electronic state is 2-A".
 Alpha  occ. eigenvalues --  -20.55426 -11.33399 -11.26835  -1.37659  -1.00704
 Alpha  occ. eigenvalues --   -0.79706  -0.68718  -0.63577  -0.58176  -0.52133
 Alpha  occ. eigenvalues --   -0.43832  -0.11572
 Alpha virt. eigenvalues --    0.04454   0.05457   0.07330   0.07491   0.09165
 Alpha virt. eigenvalues --    0.09299   0.10243   0.16506   0.16755   0.17601
 Alpha virt. eigenvalues --    0.21185   0.21771   0.22217   0.23866   0.25705

 Mulliken charges and spin densities:
               1          2
     1  C    0.320910   0.070360
     2  H    0.120731   0.001531
     3  C   -0.206255   0.798227
     4  O   -0.558479   0.096942
     5  H    0.143517   0.019866
     6  H    0.179576   0.013073
 Sum of Mulliken charges =  -0.00000   1.00000

 Dipole moment (field-independent basis, Debye):
    X=              3.5630    Y=              0.1845    Z=              0.0000  Tot=              3.5678
 Quadrupole moment (field-independent basis, Debye-Ang):
   XX=            -20.1629   YY=            -16.0322   ZZ=            -18.4654
   XY=             -0.0006   XZ=              0.0000   YZ=              0.0000

 Normal termination of Gaussian 16 at Fri Sep 29 14:52:05 2023.
