 Gaussian 16, Revision B.01,

 ---------------------------------------
 # b3lyp/gen opt freq CPHF(Grid=OneStep)
 ---------------------------------------

 -------------------
 C2H4, B3LYP/pcseg-2
 -------------------
 Symbolic Z-matrix:
 Charge =  0 Multiplicity = 1

 SCF Done:  E(RB3LYP) =  -78.6258720706     A.U. after    9 cycles
 Optimization completed.
    -- Stationary point found.
 Normal termination of Gaussian 16 at Sun Oct  1 00:04:06 2023.

 ------------------------------------------------------------------
 #N Geom=AllCheck Guess=TCheck SCRF=Check GenChk RB3LYP/ChkBas Freq
 ------------------------------------------------------------------

 Structure from the checkpoint file:  "c2h4.chk"
 -------------------
 C2H4, B3LYP/pcseg-2
 -------------------
 Charge =  0 Multiplicity = 1

 SCF Done:  E(RB3LYP) =  -78.6258720706     A.U. after    1 cycles

  Exact polarizability:  17.995   0.000  22.496  -0.000  -0.000  35.227
 Approx polarizability:  23.573   0.000  28.650  -0.000  -0.000  52.275

                      1                      2                      3
                     B2U                    B3U                    B2G
 Frequencies --    839.2562               981.6418               989.7441
 Red. masses --      1.0426                 1.1607                 1.5188
 Frc consts  --      0.4327                 0.6590                 0.8766
 IR Inten    --      0.2850               106.3159                 0.0000

                      4                      5                      6
                     AU                     B3G                    AG
 Frequencies --   1065.8180              1248.1432              1381.6498
 Red. masses --      1.0078                 1.5264                 1.2252
 Frc consts  --      0.6745                 1.4011                 1.3780
 IR Inten    --      0.0000                 0.0000                 0.0000

                      7                      8                      9
                     B1U                    AG                     B1U
 Frequencies --   1479.3777              1689.6377              3126.1695
 Red. masses --      1.1120                 3.1373                 1.0477
 Frc consts  --      1.4338                 5.2771                 6.0329
 IR Inten    --      9.9181                 0.0000                16.9661

                     10                     11                     12
                     AG                     B3G                    B2U
 Frequencies --   3139.3689              3196.3780              3224.8477
 Red. masses --      1.0720                 1.1143                 1.1178
 Frc consts  --      6.2246                 6.7075                 6.8489
 IR Inten    --      0.0000                 0.0000                22.7378

 - Thermochemistry -
 -------------------
 Temperature   298.150 Kelvin.  Pressure   1.00000 Atm.
 Atom     1 has atomic number  6 and mass  12.00000

 Molecular mass:    28.03130 amu.
 Principal axes and moments of inertia in atomic units:
                           1         2         3
     Eigenvalues --    12.22030  59.42925  71.64955
           X            0.00000   0.00000   1.00000
           Y            0.00000   1.00000   0.00000
           Z            1.00000  -0.00000  -0.00000
 This molecule is an asymmetric top.
 Rotational symmetry number  4.
 Rotational temperatures (Kelvin)      7.08771     1.45743     1.20886
 Rotational constants (GHZ):         147.68390    30.36789    25.18845
 Zero-point vibrational energy     133754.7 (Joules/Mol)
                                   31.96813 (Kcal/Mol)
 Vibrational temperatures:   1207.50  1412.36  1424.02  1533.47  1795.80
          (Kelvin)           1987.89  2128.49  2431.01  4497.86  4516.85
                             4598.88  4639.84

 Zero-point correction=                           0.050944 (Hartree/Particle)
 Thermal correction to Energy=                    0.053981
 Thermal correction to Enthalpy=                  0.054925
 Thermal correction to Gibbs Free Energy=         0.030083
 Sum of electronic and zero-point Energies=            -78.574928
 Sum of electronic and thermal Energies=               -78.571891
 Sum of electronic and thermal Enthalpies=             -78.570947
 Sum of electronic and thermal Free Energies=          -78.595789

                     E (Thermal)             CV                S
                      KCal/Mol        Cal/Mol-Kelvin    Cal/Mol-Kelvin
 Total                   33.873              8.054             52.284
 Electronic               0.000              0.000              0.000
 Translational            0.889              2.981             35.927
 Rotational               0.889              2.981             15.838
 Vibrational             32.096              2.092              0.519

 Optimization completed.
    -- Stationary point found.
 Normal termination of Gaussian 16 at Sun Oct  1 00:04:34 2023.
 Gaussian 16:  ES64L-G16RevB.01 20-Dec-2017

 ---------------------------------
 # rohf/gen geom=check guess=check
 ---------------------------------

 ----------------------
 C2H4, ROHF/cc-pVTZ-F12
 ----------------------
 Structure from the checkpoint file:  "c2h4.chk"
 Charge =  0 Multiplicity = 1

                         Standard orientation:
 ---------------------------------------------------------------------
 Center     Atomic      Atomic             Coordinates (Angstroms)
 Number     Number       Type             X           Y           Z
 ---------------------------------------------------------------------
      1          6           0        0.000000    0.000000    0.662365
      2          6           0        0.000000    0.000000   -0.662365
      3          1           0        0.000000    0.921339    1.231358
      4          1           0       -0.000000   -0.921339    1.231358
      5          1           0        0.000000    0.921339   -1.231358
      6          1           0       -0.000000   -0.921339   -1.231358
 ---------------------------------------------------------------------

 SCF Done:  E(ROHF) =  -78.0691310854     A.U. after    9 cycles

 The electronic state is 1-AG.
 Alpha  occ. eigenvalues --  -11.22952 -11.22772  -1.03629  -0.79260  -0.64385
 Alpha  occ. eigenvalues --   -0.59057  -0.50604  -0.37928
 Alpha virt. eigenvalues --    0.05285   0.06678   0.07251   0.08714   0.08888
 Alpha virt. eigenvalues --    0.09119   0.11257   0.17777   0.18410   0.19864
 Alpha virt. eigenvalues --    0.23251   0.26338   0.27555   0.33349   0.35053

 Mulliken charges and spin densities:
               1          2
     1  C   -0.275001   0.000000
     2  C   -0.275001   0.000000
     3  H    0.137501   0.000000
     4  H    0.137501   0.000000
     5  H    0.137501   0.000000
     6  H    0.137501   0.000000
 Sum of Mulliken charges =  -0.00000   0.00000

 Dipole moment (field-independent basis, Debye):
    X=             -0.0000    Y=              0.0000    Z=             -0.0000  Tot=              0.0000
 Quadrupole moment (field-independent basis, Debye-Ang):
   XX=            -16.0267   YY=            -12.4213   ZZ=            -12.1797
   XY=              0.0000   XZ=              0.0000   YZ=              0.0000

 Normal termination of Gaussian 16 at Sun Oct  1 00:04:38 2023.
