 Gaussian 16, Revision B.01,

 ---------------------------------------
 # b3lyp/gen opt freq CPHF(Grid=OneStep)
 ---------------------------------------

 ------------------------
 aziridine, B3LYP/pcseg-2
 ------------------------
 Symbolic Z-matrix:
 Charge =  0 Multiplicity = 1

 SCF Done:  E(RB3LYP) =  -133.980006985     A.U. after   11 cycles
 Optimization completed.
    -- Stationary point found.
 Normal termination of Gaussian 16 at Fri Sep 29 22:14:09 2023.

 ------------------------------------------------------------------
 #N Geom=AllCheck Guess=TCheck SCRF=Check GenChk RB3LYP/ChkBas Freq
 ------------------------------------------------------------------

 Structure from the checkpoint file:  "c2h4nh.chk"
 ------------------------
 aziridine, B3LYP/pcseg-2
 ------------------------
 Charge =  0 Multiplicity = 1

 SCF Done:  E(RB3LYP) =  -133.980006985     A.U. after    1 cycles

  Exact polarizability:  28.961   0.863  30.708   0.000   0.000  34.451
 Approx polarizability:  39.314   1.367  43.063   0.000   0.000  46.365

                      1                      2                      3
                     A'                     A"                     A'
 Frequencies --    776.1297               857.4423               869.6233
 Red. masses --      1.2177                 8.5180                 2.6422
 Frc consts  --      0.4322                 3.6897                 1.1773
 IR Inten    --     29.0946                 0.0000                52.1167

                      4                      5                      6
                     A"                     A'                     A'
 Frequencies --    918.7009              1003.1671              1116.2900
 Red. masses --      1.0511                 1.0492                 1.2880
 Frc consts  --      0.5227                 0.6221                 0.9457
 IR Inten    --     13.0574                 7.2773                 6.2767

                      7                      8                      9
                     A"                     A"                     A'
 Frequencies --   1120.7911              1154.6730              1236.5090
 Red. masses --      1.3126                 1.1093                 2.4755
 Frc consts  --      0.9714                 0.8714                 2.2300
 IR Inten    --      2.5042                 2.9414                17.9024

                     10                     11                     12
                     A"                     A'                     A"
 Frequencies --   1268.4988              1293.4052              1499.1392
 Red. masses --      1.3074                 1.5241                 1.0782
 Frc consts  --      1.2395                 1.5022                 1.4277
 IR Inten    --      9.7219                 3.9350                 0.0808

                     13                     14                     15
                     A'                     A"                     A'
 Frequencies --   1526.0430              3107.2393              3111.9583
 Red. masses --      1.2400                 1.0471                 1.0567
 Frc consts  --      1.7014                 5.9564                 6.0293
 IR Inten    --      1.0601                33.2699                17.5402

                     16                     17                     18
                     A"                     A'                     A'
 Frequencies --   3183.9439              3197.4786              3511.0829
 Red. masses --      1.1204                 1.1195                 1.0763
 Frc consts  --      6.6920                 6.7434                 7.8176
 IR Inten    --      0.5136                30.5630                 1.0414

 - Thermochemistry -
 -------------------
 Temperature   298.150 Kelvin.  Pressure   1.00000 Atm.
 Atom     1 has atomic number  7 and mass  14.00307

 Molecular mass:    43.04220 amu.
 Principal axes and moments of inertia in atomic units:
                           1         2         3
     Eigenvalues --    78.44743  84.59672 133.69040
           X            0.00000   0.07329   0.99731
           Y            0.00000   0.99731  -0.07329
           Z            1.00000  -0.00000   0.00000
 This molecule is an asymmetric top.
 Rotational symmetry number  1.
 Rotational temperatures (Kelvin)      1.10410     1.02384     0.64787
 Rotational constants (GHZ):          23.00574    21.33347    13.49941
 Zero-point vibrational energy     183938.5 (Joules/Mol)
                                   43.96236 (Kcal/Mol)
 Vibrational temperatures:   1116.68  1233.67  1251.19  1321.81  1443.33
          (Kelvin)           1606.09  1612.57  1661.32  1779.06  1825.09
                             1860.92  2156.93  2195.64  4470.62  4477.41
                             4580.99  4600.46  5051.67

 Zero-point correction=                           0.070058 (Hartree/Particle)
 Thermal correction to Energy=                    0.073302
 Thermal correction to Enthalpy=                  0.074246
 Thermal correction to Gibbs Free Energy=         0.045894
 Sum of electronic and zero-point Energies=           -133.909949
 Sum of electronic and thermal Energies=              -133.906705
 Sum of electronic and thermal Enthalpies=            -133.905761
 Sum of electronic and thermal Free Energies=         -133.934113

                     E (Thermal)             CV                S
                      KCal/Mol        Cal/Mol-Kelvin    Cal/Mol-Kelvin
 Total                   45.997             10.012             59.671
 Electronic               0.000              0.000              0.000
 Translational            0.889              2.981             37.205
 Rotational               0.889              2.981             21.411
 Vibrational             44.220              4.050              1.055

 Optimization completed.
    -- Stationary point found.
 Normal termination of Gaussian 16 at Fri Sep 29 22:16:17 2023.
 Gaussian 16:  ES64L-G16RevB.01 20-Dec-2017

 ---------------------------------
 # rohf/gen geom=check guess=check
 ---------------------------------

 ---------------------------
 aziridine, ROHF/cc-pVTZ-F12
 ---------------------------
 Structure from the checkpoint file:  "c2h4nh.chk"
 Charge =  0 Multiplicity = 1

                         Standard orientation:
 ---------------------------------------------------------------------
 Center     Atomic      Atomic             Coordinates (Angstroms)
 Number     Number       Type             X           Y           Z
 ---------------------------------------------------------------------
      1          7           0       -0.037949    0.871889   -0.000000
      2          1           0        0.888247    1.282185   -0.000000
      3          6           0       -0.037949   -0.397000    0.739944
      4          6           0       -0.037949   -0.397000   -0.739944
      5          1           0       -0.951862   -0.607994    1.279224
      6          1           0       -0.951862   -0.607994   -1.279224
      7          1           0        0.868257   -0.702710    1.248262
      8          1           0        0.868257   -0.702710   -1.248262
 ---------------------------------------------------------------------

 SCF Done:  E(ROHF) =  -133.099130645     A.U. after   10 cycles

 The electronic state is 1-A'.
 Alpha  occ. eigenvalues --  -15.55609 -11.25415 -11.25339  -1.25688  -0.89608
 Alpha  occ. eigenvalues --   -0.83993  -0.69901  -0.63953  -0.52855  -0.48062
 Alpha  occ. eigenvalues --   -0.47843  -0.39417
 Alpha virt. eigenvalues --    0.05070   0.05788   0.06180   0.06914   0.09241
 Alpha virt. eigenvalues --    0.09606   0.10341   0.13202   0.14066   0.17563
 Alpha virt. eigenvalues --    0.19258   0.22276   0.23155   0.25113   0.26360

 Mulliken charges and spin densities:
               1          2
     1  N   -0.481765   0.000000
     2  H    0.186962   0.000000
     3  C   -0.054345   0.000000
     4  C   -0.054345   0.000000
     5  H    0.105076   0.000000
     6  H    0.105076   0.000000
     7  H    0.096671   0.000000
     8  H    0.096671   0.000000
 Sum of Mulliken charges =  -0.00000   0.00000

 Dipole moment (field-independent basis, Debye):
    X=              1.3514    Y=             -1.2324    Z=             -0.0000  Tot=              1.8290
 Quadrupole moment (field-independent basis, Debye-Ang):
   XX=            -17.7150   YY=            -21.4727   ZZ=            -18.5531
   XY=              2.2462   XZ=             -0.0000   YZ=              0.0000

 Normal termination of Gaussian 16 at Fri Sep 29 22:16:43 2023.
