 Gaussian 16, Revision B.01,
 Gaussian 16:  ES64L-G16RevB.01 20-Dec-2017

 -------------------------------
 # b3lyp/gen opt freq symm=loose
 -------------------------------

 ------------------------
 aziridine, B3LYP/pcseg-2
 ------------------------
 Symbolic Z-matrix:
 Charge =  0 Multiplicity = 1

 SCF Done:  E(RB3LYP) =  -133.979941936     A.U. after   11 cycles
 SCF Done:  E(RB3LYP) =  -133.980005174     A.U. after    8 cycles
 SCF Done:  E(RB3LYP) =  -133.980006594     A.U. after    7 cycles
 SCF Done:  E(RB3LYP) =  -133.980006985     A.U. after    6 cycles
 Optimization completed.
    -- Stationary point found.
 Normal termination of Gaussian 16 at Fri Sep  8 17:51:18 2023.

 ------------------------------------------------------------------
 #N Geom=AllCheck Guess=TCheck SCRF=Check GenChk RB3LYP/ChkBas Freq
 ------------------------------------------------------------------

 Structure from the checkpoint file:  "/wrk/irikura/Gau-12762.chk"
 ------------------------
 aziridine, B3LYP/pcseg-2
 ------------------------
 Charge =  0 Multiplicity = 1

                         Standard orientation:
 ---------------------------------------------------------------------
 Center     Atomic      Atomic             Coordinates (Angstroms)
 Number     Number       Type             X           Y           Z
 ---------------------------------------------------------------------
      1          7           0       -0.037949    0.871889    0.000000
      2          1           0        0.888247    1.282185    0.000000
      3          6           0       -0.037949   -0.397000    0.739944
      4          6           0       -0.037949   -0.397000   -0.739944
      5          1           0       -0.951862   -0.607994    1.279224
      6          1           0       -0.951862   -0.607994   -1.279224
      7          1           0        0.868257   -0.702710    1.248262
      8          1           0        0.868257   -0.702710   -1.248262
 ---------------------------------------------------------------------

 SCF Done:  E(RB3LYP) =  -133.980006985     A.U. after    1 cycles

 The electronic state is 1-A'.
 Alpha  occ. eigenvalues --  -14.31202 -10.20048 -10.20016  -0.95774  -0.66202
 Alpha  occ. eigenvalues --   -0.61889  -0.52470  -0.47398  -0.37996  -0.34947
 Alpha  occ. eigenvalues --   -0.34112  -0.25689
 Alpha virt. eigenvalues --    0.01231   0.03664   0.04636   0.05932   0.10150
 Alpha virt. eigenvalues --    0.10490   0.12268   0.14916   0.18508   0.21148
 Alpha virt. eigenvalues --    0.24910   0.25970   0.29738   0.30048   0.31093

 Mulliken charges:
               1
     1  N   -0.356012
     2  H    0.119046
     3  C    0.019804
     4  C    0.019804
     5  H    0.054896
     6  H    0.054896
     7  H    0.043782
     8  H    0.043782
 Sum of Mulliken charges =   0.00000

 Dipole moment (field-independent basis, Debye):
    X=              1.3359    Y=             -1.1250    Z=             -0.0000  Tot=              1.7465
 Quadrupole moment (field-independent basis, Debye-Ang):
   XX=            -17.8774   YY=            -21.4877   ZZ=            -18.7583
   XY=              2.2246   XZ=             -0.0000   YZ=             -0.0000

  Exact polarizability:  28.961   0.863  30.708   0.000   0.000  34.451
 Approx polarizability:  39.314   1.367  43.063   0.000  -0.000  46.365

                      1                      2                      3
                     A'                     A"                     A'
 Frequencies --    776.1270               857.4453               869.6224
 Red. masses --      1.2177                 8.5180                 2.6423
 Frc consts  --      0.4322                 3.6898                 1.1773
 IR Inten    --     29.0945                 0.0000                52.1185

                      4                      5                      6
                     A"                     A'                     A'
 Frequencies --    918.6995              1003.1655              1116.2895
 Red. masses --      1.0511                 1.0492                 1.2880
 Frc consts  --      0.5227                 0.6221                 0.9457
 IR Inten    --     13.0578                 7.2775                 6.2761

                      7                      8                      9
                     A"                     A"                     A'
 Frequencies --   1120.7909              1154.6723              1236.5090
 Red. masses --      1.3126                 1.1093                 2.4755
 Frc consts  --      0.9714                 0.8714                 2.2300
 IR Inten    --      2.5038                 2.9414                17.9014

                     10                     11                     12
                     A"                     A'                     A"
 Frequencies --   1268.4977              1293.4052              1499.1394
 Red. masses --      1.3074                 1.5241                 1.0782
 Frc consts  --      1.2395                 1.5022                 1.4277
 IR Inten    --      9.7223                 3.9354                 0.0808

                     13                     14                     15
                     A'                     A"                     A'
 Frequencies --   1526.0430              3107.2406              3111.9590
 Red. masses --      1.2400                 1.0471                 1.0567
 Frc consts  --      1.7014                 5.9564                 6.0293
 IR Inten    --      1.0599                33.2702                17.5409

                     16                     17                     18
                     A"                     A'                     A'
 Frequencies --   3183.9460              3197.4798              3511.0836
 Red. masses --      1.1204                 1.1195                 1.0763
 Frc consts  --      6.6920                 6.7434                 7.8176
 IR Inten    --      0.5137                30.5623                 1.0412

 - Thermochemistry -
 -------------------
 Temperature   298.150 Kelvin.  Pressure   1.00000 Atm.
 Atom     1 has atomic number  7 and mass  14.00307

 Molecular mass:    43.04220 amu.
 Principal axes and moments of inertia in atomic units:
                           1         2         3
     Eigenvalues --    78.44742  84.59667 133.69037
           X            0.00000   0.07329   0.99731
           Y            0.00000   0.99731  -0.07329
           Z            1.00000   0.00000   0.00000
 This molecule is an asymmetric top.
 Rotational symmetry number  1.
 Rotational temperatures (Kelvin)      1.10410     1.02385     0.64787
 Rotational constants (GHZ):          23.00574    21.33348    13.49941
 Zero-point vibrational energy     183938.5 (Joules/Mol)
                                   43.96236 (Kcal/Mol)
 Vibrational temperatures:   1116.67  1233.67  1251.19  1321.80  1443.33
          (Kelvin)           1606.09  1612.57  1661.32  1779.06  1825.09
                             1860.92  2156.93  2195.64  4470.63  4477.41
                             4580.99  4600.46  5051.67

 Zero-point correction=                           0.070058 (Hartree/Particle)
 Thermal correction to Energy=                    0.073302
 Thermal correction to Enthalpy=                  0.074246
 Thermal correction to Gibbs Free Energy=         0.045894
 Sum of electronic and zero-point Energies=           -133.909949
 Sum of electronic and thermal Energies=              -133.906705
 Sum of electronic and thermal Enthalpies=            -133.905761
 Sum of electronic and thermal Free Energies=         -133.934113

                     E (Thermal)             CV                S
                      KCal/Mol        Cal/Mol-Kelvin    Cal/Mol-Kelvin
 Total                   45.997             10.012             59.671
 Electronic               0.000              0.000              0.000
 Translational            0.889              2.981             37.205
 Rotational               0.889              2.981             21.411
 Vibrational             44.220              4.050              1.055

 Optimization completed.
    -- Stationary point found.
 Normal termination of Gaussian 16 at Fri Sep  8 17:52:16 2023.
