 Gaussian 16, Revision B.01,
 Gaussian 16:  ES64L-G16RevB.01 20-Dec-2017

 --------------------
 # b3lyp/gen opt freq
 --------------------

 ---------------------------------
 1,1-dichloroethane, B3LYP/pcseg-2
 ---------------------------------
 Symbolic Z-matrix:
 Charge =  0 Multiplicity = 1

 SCF Done:  E(RB3LYP) =  -999.132302993     A.U. after   12 cycles
 SCF Done:  E(RB3LYP) =  -999.132359168     A.U. after    8 cycles
 SCF Done:  E(RB3LYP) =  -999.132359633     A.U. after    6 cycles
 Optimization completed.
    -- Stationary point found.
 Normal termination of Gaussian 16 at Wed Jun 15 16:45:58 2022.

 ------------------------------------------------------------------
 #N Geom=AllCheck Guess=TCheck SCRF=Check GenChk RB3LYP/ChkBas Freq
 ------------------------------------------------------------------

 Structure from the checkpoint file:  "/wrk/irikura/Gau-31219.chk"
 ---------------------------------
 1,1-dichloroethane, B3LYP/pcseg-2
 ---------------------------------
 Charge =  0 Multiplicity = 1

                         Standard orientation:
 ---------------------------------------------------------------------
 Center     Atomic      Atomic             Coordinates (Angstroms)
 Number     Number       Type             X           Y           Z
 ---------------------------------------------------------------------
      1          6           0        0.209725    0.504599    0.000000
      2          6           0       -0.965865    1.451721    0.000000
      3          1           0        1.163478    1.017889   -0.000000
      4         17           0        0.209725   -0.524171    1.477961
      5         17           0        0.209725   -0.524171   -1.477961
      6          1           0       -1.903502    0.900080    0.000000
      7          1           0       -0.926898    2.082965    0.887097
      8          1           0       -0.926898    2.082965   -0.887097
 ---------------------------------------------------------------------

 SCF Done:  E(RB3LYP) =  -999.132359633     A.U. after    1 cycles

 The electronic state is 1-A'.
 Alpha  occ. eigenvalues -- -101.51640-101.51640 -10.30375 -10.19523  -9.46180
 Alpha  occ. eigenvalues --   -9.46179  -7.22348  -7.22348  -7.21457  -7.21457
 Alpha  occ. eigenvalues --   -7.21430  -7.21430  -0.90846  -0.82548  -0.75622
 Alpha  occ. eigenvalues --   -0.62480  -0.50006  -0.47683  -0.44888  -0.40438
 Alpha  occ. eigenvalues --   -0.40147  -0.33425  -0.32694  -0.31133  -0.30910
 Alpha virt. eigenvalues --   -0.01773   0.01459   0.01846   0.04096   0.06715
 Alpha virt. eigenvalues --    0.07825   0.10510   0.14870   0.17306   0.18203
 Alpha virt. eigenvalues --    0.19931   0.21337   0.24380   0.27625   0.28671

 Mulliken charges:
               1
     1  C    0.080346
     2  C   -0.061856
     3  H    0.097651
     4  Cl  -0.125846
     5  Cl  -0.125846
     6  H    0.049304
     7  H    0.043123
     8  H    0.043123
 Sum of Mulliken charges =  -0.00000

 Dipole moment (field-independent basis, Debye):
    X=             -0.2901    Y=              2.1656    Z=              0.0000  Tot=              2.1849
 Quadrupole moment (field-independent basis, Debye-Ang):
   XX=            -37.7889   YY=            -36.9199   ZZ=            -41.0184
   XY=              0.0916   XZ=              0.0000   YZ=              0.0000

  Exact polarizability:  39.708  -4.010  47.375   0.000  -0.000  58.615
 Approx polarizability:  56.679  -2.003  68.158   0.000  -0.000  86.727

                      1                      2                      3
                     A"                     A'                     A"
 Frequencies --    261.7634               269.4592               316.8746
 Red. masses --      1.0724                14.3637                 2.8335
 Frc consts  --      0.0433                 0.6145                 0.1676
 IR Inten    --      0.1158                 0.8624                 1.2640

                      4                      5                      6
                     A'                     A'                     A"
 Frequencies --    403.0338               637.9533               664.4666
 Red. masses --      3.8506                 4.4696                 5.1042
 Frc consts  --      0.3685                 1.0717                 1.3278
 IR Inten    --      4.6921                13.2703               124.6085

                      7                      8                      9
                     A'                     A"                     A'
 Frequencies --    985.4445              1073.7926              1096.5609
 Red. masses --      1.7521                 1.3992                 2.3901
 Frc consts  --      1.0025                 0.9506                 1.6933
 IR Inten    --     16.1777                35.7678                 4.3434

                     10                     11                     12
                     A"                     A'                     A'
 Frequencies --   1250.5826              1308.2626              1417.5624
 Red. masses --      1.1097                 1.2310                 1.2383
 Frc consts  --      1.0225                 1.2413                 1.4661
 IR Inten    --     40.3010                14.4964                 7.6028

                     13                     14                     15
                     A'                     A"                     A'
 Frequencies --   1481.6844              1486.2971              3049.2917
 Red. masses --      1.0381                 1.0431                 1.0341
 Frc consts  --      1.3428                 1.3577                 5.6650
 IR Inten    --      8.4963                 1.8016                 6.5685

                     16                     17                     18
                     A"                     A'                     A'
 Frequencies --   3119.1581              3127.6600              3149.8468
 Red. masses --      1.1029                 1.0986                 1.0925
 Frc consts  --      6.3219                 6.3320                 6.3865
 IR Inten    --      7.7688                 1.4051                 5.8637

 - Thermochemistry -
 -------------------
 Temperature   298.150 Kelvin.  Pressure   1.00000 Atm.
 Atom     1 has atomic number  6 and mass  12.00000

 Molecular mass:    97.96901 amu.
 Principal axes and moments of inertia in atomic units:
                           1         2         3
     Eigenvalues --   282.52612 575.04260 809.91341
           X           -0.00000  -0.47410   0.88047
           Y            0.00000   0.88047   0.47410
           Z            1.00000  -0.00000  -0.00000
 This molecule is an asymmetric top.
 Rotational symmetry number  1.
 Rotational temperatures (Kelvin)      0.30657     0.15062     0.10694
 Rotational constants (GHZ):           6.38787     3.13845     2.22831
 Zero-point vibrational energy     150129.5 (Joules/Mol)
                                   35.88181 (Kcal/Mol)
 Warning -- explicit consideration of   4 degrees of freedom as
           vibrations may cause significant error
 Vibrational temperatures:    376.62   387.69   455.91   579.88   917.87
          (Kelvin)            956.02  1417.83  1544.95  1577.71  1799.31
                             1882.30  2039.56  2131.81  2138.45  4387.25
                             4487.77  4500.01  4531.93

 Zero-point correction=                           0.057181 (Hartree/Particle)
 Thermal correction to Energy=                    0.062052
 Thermal correction to Enthalpy=                  0.062996
 Thermal correction to Gibbs Free Energy=         0.028484
 Sum of electronic and zero-point Energies=           -999.075178
 Sum of electronic and thermal Energies=              -999.070308
 Sum of electronic and thermal Enthalpies=            -999.069364
 Sum of electronic and thermal Free Energies=         -999.103876

                     E (Thermal)             CV                S
                      KCal/Mol        Cal/Mol-Kelvin    Cal/Mol-Kelvin
 Total                   38.938             15.946             72.636
 Electronic               0.000              0.000              0.000
 Translational            0.889              2.981             39.657
 Rotational               0.889              2.981             26.378
 Vibrational             37.160              9.985              6.601
 Vibration     1          0.669              1.743              1.650
 Vibration     2          0.674              1.729              1.600
 Vibration     3          0.704              1.641              1.326
 Vibration     4          0.768              1.464              0.952

 Optimization completed.
    -- Stationary point found.
 Normal termination of Gaussian 16 at Wed Jun 15 16:46:46 2022.
