 Gaussian 16, Revision B.01,

 ---------------------------------------
 # b3lyp/gen opt freq CPHF(Grid=OneStep)
 ---------------------------------------

 ---------------------------------
 1,1-dichloroethane, B3LYP/pcseg-2
 ---------------------------------
 Symbolic Z-matrix:
 Charge =  0 Multiplicity = 1

 SCF Done:  E(RB3LYP) =  -999.132359633     A.U. after   12 cycles
 Optimization completed.
    -- Stationary point found.
 Normal termination of Gaussian 16 at Fri Sep 29 01:02:44 2023.

 ------------------------------------------------------------------
 #N Geom=AllCheck Guess=TCheck SCRF=Check GenChk RB3LYP/ChkBas Freq
 ------------------------------------------------------------------

 Structure from the checkpoint file:  "c2h4cl2.chk"
 ---------------------------------
 1,1-dichloroethane, B3LYP/pcseg-2
 ---------------------------------
 Charge =  0 Multiplicity = 1

 SCF Done:  E(RB3LYP) =  -999.132359633     A.U. after    1 cycles

  Exact polarizability:  39.708  -4.010  47.375   0.000  -0.000  58.615
 Approx polarizability:  56.679  -2.003  68.158   0.000  -0.000  86.727

                      1                      2                      3
                     A"                     A'                     A"
 Frequencies --    261.7689               269.4678               316.8740
 Red. masses --      1.0724                14.3631                 2.8335
 Frc consts  --      0.0433                 0.6145                 0.1676
 IR Inten    --      0.1158                 0.8623                 1.2638

                      4                      5                      6
                     A'                     A'                     A"
 Frequencies --    403.0234               637.9546               664.4786
 Red. masses --      3.8506                 4.4697                 5.1041
 Frc consts  --      0.3685                 1.0718                 1.3278
 IR Inten    --      4.6925                13.2704               124.6260

                      7                      8                      9
                     A'                     A"                     A'
 Frequencies --    985.4437              1073.8054              1096.5655
 Red. masses --      1.7520                 1.3992                 2.3901
 Frc consts  --      1.0024                 0.9506                 1.6933
 IR Inten    --     16.1765                35.7640                 4.3449

                     10                     11                     12
                     A"                     A'                     A'
 Frequencies --   1250.5812              1308.2614              1417.5636
 Red. masses --      1.1097                 1.2310                 1.2383
 Frc consts  --      1.0225                 1.2413                 1.4661
 IR Inten    --     40.3100                14.4976                 7.6018

                     13                     14                     15
                     A'                     A"                     A'
 Frequencies --   1481.6838              1486.2987              3049.2885
 Red. masses --      1.0381                 1.0431                 1.0341
 Frc consts  --      1.3428                 1.3577                 5.6650
 IR Inten    --      8.4972                 1.8008                 6.5686

                     16                     17                     18
                     A"                     A'                     A'
 Frequencies --   3119.1514              3127.6587              3149.8422
 Red. masses --      1.1029                 1.0986                 1.0925
 Frc consts  --      6.3219                 6.3320                 6.3865
 IR Inten    --      7.7678                 1.4035                 5.8631

 - Thermochemistry -
 -------------------
 Temperature   298.150 Kelvin.  Pressure   1.00000 Atm.
 Atom     1 has atomic number  6 and mass  12.00000

 Molecular mass:    97.96901 amu.
 Principal axes and moments of inertia in atomic units:
                           1         2         3
     Eigenvalues --   282.52606 575.04269 809.91346
           X            0.00000  -0.47410   0.88047
           Y           -0.00000   0.88047   0.47410
           Z            1.00000   0.00000  -0.00000
 This molecule is an asymmetric top.
 Rotational symmetry number  1.
 Rotational temperatures (Kelvin)      0.30657     0.15062     0.10694
 Rotational constants (GHZ):           6.38788     3.13845     2.22831
 Zero-point vibrational energy     150129.6 (Joules/Mol)
                                   35.88184 (Kcal/Mol)
 Warning -- explicit consideration of   4 degrees of freedom as
           vibrations may cause significant error
 Vibrational temperatures:    376.63   387.70   455.91   579.86   917.87
          (Kelvin)            956.04  1417.83  1544.97  1577.71  1799.31
                             1882.30  2039.56  2131.81  2138.45  4387.25
                             4487.76  4500.00  4531.92

 Zero-point correction=                           0.057181 (Hartree/Particle)
 Thermal correction to Energy=                    0.062052
 Thermal correction to Enthalpy=                  0.062996
 Thermal correction to Gibbs Free Energy=         0.028484
 Sum of electronic and zero-point Energies=           -999.075178
 Sum of electronic and thermal Energies=              -999.070308
 Sum of electronic and thermal Enthalpies=            -999.069364
 Sum of electronic and thermal Free Energies=         -999.103876

                     E (Thermal)             CV                S
                      KCal/Mol        Cal/Mol-Kelvin    Cal/Mol-Kelvin
 Total                   38.938             15.946             72.636
 Electronic               0.000              0.000              0.000
 Translational            0.889              2.981             39.657
 Rotational               0.889              2.981             26.378
 Vibrational             37.160              9.985              6.601
 Vibration     1          0.669              1.743              1.650
 Vibration     2          0.674              1.729              1.600
 Vibration     3          0.704              1.641              1.326
 Vibration     4          0.768              1.464              0.952

 Optimization completed.
    -- Stationary point found.
 Normal termination of Gaussian 16 at Fri Sep 29 01:05:36 2023.
 Gaussian 16:  ES64L-G16RevB.01 20-Dec-2017

 ---------------------------------
 # rohf/gen geom=check guess=check
 ---------------------------------

 ------------------------------------
 1,1-dichloroethane, ROHF/cc-pVTZ-F12
 ------------------------------------
 Structure from the checkpoint file:  "c2h4cl2.chk"
 Charge =  0 Multiplicity = 1

                         Standard orientation:
 ---------------------------------------------------------------------
 Center     Atomic      Atomic             Coordinates (Angstroms)
 Number     Number       Type             X           Y           Z
 ---------------------------------------------------------------------
      1          6           0        0.209725    0.504599    0.000000
      2          6           0       -0.965865    1.451721   -0.000000
      3          1           0        1.163478    1.017889    0.000000
      4         17           0        0.209725   -0.524171    1.477961
      5         17           0        0.209725   -0.524171   -1.477961
      6          1           0       -1.903502    0.900080   -0.000000
      7          1           0       -0.926898    2.082965    0.887097
      8          1           0       -0.926898    2.082965   -0.887097
 ---------------------------------------------------------------------

 SCF Done:  E(ROHF) =  -997.143991833     A.U. after   11 cycles

 The electronic state is 1-A'.
 Alpha  occ. eigenvalues -- -104.84109-104.84109 -11.37045 -11.24953 -10.56636
 Alpha  occ. eigenvalues --  -10.56635  -8.03322  -8.03322  -8.03169  -8.03169
 Alpha  occ. eigenvalues --   -8.03163  -8.03163  -1.19118  -1.08743  -1.00972
 Alpha  occ. eigenvalues --   -0.83627  -0.66426  -0.62812  -0.59782  -0.55023
 Alpha  occ. eigenvalues --   -0.53384  -0.46637  -0.46474  -0.44413  -0.44010
 Alpha virt. eigenvalues --    0.04485   0.05598   0.06342   0.06577   0.08626
 Alpha virt. eigenvalues --    0.08957   0.10745   0.11263   0.11382   0.13212
 Alpha virt. eigenvalues --    0.14296   0.14490   0.15019   0.16161   0.20479

 Mulliken charges and spin densities:
               1          2
     1  C   -0.158276   0.000000
     2  C   -0.280618   0.000000
     3  H    0.179141   0.000000
     4  Cl  -0.048518   0.000000
     5  Cl  -0.048518   0.000000
     6  H    0.138097   0.000000
     7  H    0.109346   0.000000
     8  H    0.109346   0.000000
 Sum of Mulliken charges =  -0.00000   0.00000

 Dipole moment (field-independent basis, Debye):
    X=             -0.2960    Y=              2.3006    Z=              0.0000  Tot=              2.3196
 Quadrupole moment (field-independent basis, Debye-Ang):
   XX=            -37.7234   YY=            -36.8568   ZZ=            -41.3528
   XY=              0.1027   XZ=             -0.0000   YZ=              0.0000

 Normal termination of Gaussian 16 at Fri Sep 29 01:06:37 2023.
