 Gaussian 16, Revision B.01,
 Gaussian 16:  ES64L-G16RevB.01 20-Dec-2017

 --------------------
 # b3lyp/gen opt freq
 --------------------

 -------------------------
 ethylamine, B3LYP/pcseg-2
 -------------------------
 Symbolic Z-matrix:
 Charge =  0 Multiplicity = 1

 SCF Done:  E(RB3LYP) =  -135.237057133     A.U. after   12 cycles
 SCF Done:  E(RB3LYP) =  -135.237246472     A.U. after    9 cycles
 SCF Done:  E(RB3LYP) =  -135.237264775     A.U. after    8 cycles
 SCF Done:  E(RB3LYP) =  -135.237266256     A.U. after    7 cycles
 Optimization completed.
    -- Stationary point found.
 Normal termination of Gaussian 16 at Wed Jun 15 16:12:22 2022.

 ------------------------------------------------------------------
 #N Geom=AllCheck Guess=TCheck SCRF=Check GenChk RB3LYP/ChkBas Freq
 ------------------------------------------------------------------

 Structure from the checkpoint file:  "/wrk/irikura/Gau-21452.chk"
 -------------------------
 ethylamine, B3LYP/pcseg-2
 -------------------------
 Charge =  0 Multiplicity = 1

                         Standard orientation:
 ---------------------------------------------------------------------
 Center     Atomic      Atomic             Coordinates (Angstroms)
 Number     Number       Type             X           Y           Z
 ---------------------------------------------------------------------
      1          7           0       -1.306366   -0.088356    0.000000
      2          6           0        0.000000    0.571429    0.000000
      3          6           0        1.217543   -0.354028    0.000000
      4          1           0        2.148887    0.217015    0.000000
      5          1           0        1.219796   -0.997483    0.882358
      6          1           0        1.219796   -0.997483   -0.882358
      7          1           0        0.037861    1.227234   -0.872439
      8          1           0        0.037861    1.227234    0.872439
      9          1           0       -1.412448   -0.681214    0.813970
     10          1           0       -1.412448   -0.681214   -0.813970
 ---------------------------------------------------------------------

 SCF Done:  E(RB3LYP) =  -135.237266256     A.U. after    1 cycles

 The electronic state is 1-A'.
 Alpha  occ. eigenvalues --  -14.29226 -10.19272 -10.16036  -0.88117  -0.73104
 Alpha  occ. eigenvalues --   -0.61293  -0.50118  -0.44332  -0.41669  -0.40986
 Alpha  occ. eigenvalues --   -0.36534  -0.34329  -0.24241
 Alpha virt. eigenvalues --    0.00980   0.04133   0.04850   0.05277   0.08643
 Alpha virt. eigenvalues --    0.09452   0.10918   0.12983   0.15889   0.17992
 Alpha virt. eigenvalues --    0.19081   0.23666   0.25161   0.25834   0.28388

 Mulliken charges:
               1
     1  N   -0.333757
     2  C    0.116396
     3  C   -0.061537
     4  H    0.023229
     5  H    0.007029
     6  H    0.007029
     7  H    0.022795
     8  H    0.022795
     9  H    0.098010
    10  H    0.098010
 Sum of Mulliken charges =  -0.00000

 Dipole moment (field-independent basis, Debye):
    X=              0.9259    Y=             -0.8926    Z=              0.0000  Tot=              1.2861
 Quadrupole moment (field-independent basis, Debye-Ang):
   XX=            -24.3279   YY=            -20.7882   ZZ=            -19.3707
   XY=              2.6571   XZ=             -0.0000   YZ=              0.0000

  Exact polarizability:  40.185   0.059  35.628   0.000  -0.000  33.822
 Approx polarizability:  48.382   1.289  47.287   0.000   0.000  47.593

                      1                      2                      3
                     A"                     A"                     A'
 Frequencies --    248.5185               275.8012               400.7427
 Red. masses --      1.0161                 1.1654                 2.1095
 Frc consts  --      0.0370                 0.0522                 0.1996
 IR Inten    --     18.1694                27.4433                 7.3692

                      4                      5                      6
                     A"                     A'                     A'
 Frequencies --    778.6426               828.1730               888.1085
 Red. masses --      1.0928                 1.6718                 1.6323
 Frc consts  --      0.3904                 0.6756                 0.7585
 IR Inten    --      0.8612               161.9930                20.9037

                      7                      8                      9
                     A"                     A'                     A'
 Frequencies --   1005.0674              1056.8307              1141.6415
 Red. masses --      1.1099                 3.3055                 2.1331
 Frc consts  --      0.6606                 2.1752                 1.6380
 IR Inten    --      0.7894                28.2836                 9.4384

                     10                     11                     12
                     A"                     A'                     A"
 Frequencies --   1270.1565              1382.4474              1386.5533
 Red. masses --      1.4230                 1.2737                 1.1512
 Frc consts  --      1.3526                 1.4343                 1.3040
 IR Inten    --      0.0787                13.9288                 0.0732

                     13                     14                     15
                     A'                     A'                     A"
 Frequencies --   1406.3844              1485.5073              1492.0573
 Red. masses --      1.2441                 1.0454                 1.0449
 Frc consts  --      1.4498                 1.3592                 1.3705
 IR Inten    --      6.9458                 0.2951                 7.9516

                     16                     17                     18
                     A'                     A'                     A'
 Frequencies --   1504.7047              1659.6856              3016.0848
 Red. masses --      1.0835                 1.0872                 1.0345
 Frc consts  --      1.4454                 1.7644                 5.5447
 IR Inten    --      2.7212                24.2560                24.3039

                     19                     20                     21
                     A'                     A"                     A'
 Frequencies --   3028.4087              3053.2205              3079.6924
 Red. masses --      1.0601                 1.1035                 1.1003
 Frc consts  --      5.7283                 6.0611                 6.1487
 IR Inten    --     31.8365                 4.5877                48.4215

                     22                     23                     24
                     A"                     A'                     A"
 Frequencies --   3087.0779              3489.9529              3568.0615
 Red. masses --      1.1042                 1.0484                 1.0935
 Frc consts  --      6.2001                 7.5232                 8.2021
 IR Inten    --     58.6996                 1.1851                 0.4812

 - Thermochemistry -
 -------------------
 Temperature   298.150 Kelvin.  Pressure   1.00000 Atm.
 Atom     1 has atomic number  7 and mass  14.00307

 Molecular mass:    45.05785 amu.
 Principal axes and moments of inertia in atomic units:
                           1         2         3
     Eigenvalues --    56.05412 207.17923 231.52962
           X            0.99659   0.08247   0.00000
           Y           -0.08247   0.99659   0.00000
           Z           -0.00000   0.00000   1.00000
 This molecule is an asymmetric top.
 Rotational symmetry number  1.
 Rotational temperatures (Kelvin)      1.54518     0.41806     0.37409
 Rotational constants (GHZ):          32.19641     8.71101     7.79486
 Zero-point vibrational energy     242444.3 (Joules/Mol)
                                   57.94558 (Kcal/Mol)
 Warning -- explicit consideration of   3 degrees of freedom as
           vibrations may cause significant error
 Vibrational temperatures:    357.56   396.82   576.58  1120.29  1191.56
          (Kelvin)           1277.79  1446.07  1520.54  1642.57  1827.47
                             1989.03  1994.94  2023.47  2137.31  2146.74
                             2164.93  2387.92  4339.47  4357.20  4392.90
                             4430.99  4441.62  5021.26  5133.64

 Zero-point correction=                           0.092342 (Hartree/Particle)
 Thermal correction to Energy=                    0.096775
 Thermal correction to Enthalpy=                  0.097719
 Thermal correction to Gibbs Free Energy=         0.066826
 Sum of electronic and zero-point Energies=           -135.144924
 Sum of electronic and thermal Energies=              -135.140491
 Sum of electronic and thermal Enthalpies=            -135.139547
 Sum of electronic and thermal Free Energies=         -135.170440

                     E (Thermal)             CV                S
                      KCal/Mol        Cal/Mol-Kelvin    Cal/Mol-Kelvin
 Total                   60.727             14.422             65.020
 Electronic               0.000              0.000              0.000
 Translational            0.889              2.981             37.342
 Rotational               0.889              2.981             22.513
 Vibrational             58.950              8.460              5.165
 Vibration     1          0.662              1.765              1.741
 Vibration     2          0.677              1.718              1.560
 Vibration     3          0.767              1.469              0.960

 Optimization completed.
    -- Stationary point found.
 Normal termination of Gaussian 16 at Wed Jun 15 16:13:15 2022.
