 Gaussian 16, Revision B.01,

 ---------------------------------------
 # b3lyp/gen opt freq CPHF(Grid=OneStep)
 ---------------------------------------

 ----------------------
 ethoxyl, B3LYP/pcseg-2
 ----------------------
 Symbolic Z-matrix:
 Charge =  0 Multiplicity = 2

 SCF Done:  E(UB3LYP) =  -154.439686575     A.U. after   18 cycles
 Optimization completed.
    -- Stationary point found.
 Normal termination of Gaussian 16 at Fri Sep 29 04:42:10 2023.

 ------------------------------------------------------------------
 #N Geom=AllCheck Guess=TCheck SCRF=Check GenChk UB3LYP/ChkBas Freq
 ------------------------------------------------------------------

 Structure from the checkpoint file:  "c2h5o.chk"
 ----------------------
 ethoxyl, B3LYP/pcseg-2
 ----------------------
 Charge =  0 Multiplicity = 2

 SCF Done:  E(UB3LYP) =  -154.439686575     A.U. after    1 cycles

  Exact polarizability:  33.848  -1.232  30.896  -0.043  -0.046  28.691
 Approx polarizability:  42.118  -4.505  42.036  -0.010   0.013  37.277

                      1                      2                      3
                      A                      A                      A
 Frequencies --     75.5529               255.6812               436.3441
 Red. masses --      1.7261                 1.0226                 2.9012
 Frc consts  --      0.0058                 0.0394                 0.3255
 IR Inten    --     14.9082                15.1889                 7.0367

                      4                      5                      6
                      A                      A                      A
 Frequencies --    863.7248               886.3130              1068.1262
 Red. masses --      1.0640                 2.4876                 3.5569
 Frc consts  --      0.4677                 1.1513                 2.3909
 IR Inten    --      0.0161                 0.5426                15.3712

                      7                      8                      9
                      A                      A                      A
 Frequencies --   1097.5868              1239.2958              1330.3999
 Red. masses --      1.9792                 1.2353                 1.1234
 Frc consts  --      1.4048                 1.1178                 1.1715
 IR Inten    --      7.3844                 0.0058                11.6756

                     10                     11                     12
                      A                      A                      A
 Frequencies --   1390.5798              1409.7392              1484.6110
 Red. masses --      1.2684                 1.2788                 1.0394
 Frc consts  --      1.4452                 1.4974                 1.3498
 IR Inten    --     27.5123                16.7763                 6.5649

                     13                     14                     15
                      A                      A                      A
 Frequencies --   1493.9906              2881.6312              2888.2038
 Red. masses --      1.0461                 1.0697                 1.0712
 Frc consts  --      1.3757                 5.2335                 5.2648
 IR Inten    --      6.5082                15.3063                14.0217

                     16                     17                     18
                      A                      A                      A
 Frequencies --   3035.7318              3100.8949              3111.5204
 Red. masses --      1.0353                 1.1008                 1.1033
 Frc consts  --      5.6216                 6.2365                 6.2933
 IR Inten    --     13.1732                20.5674                17.9071

 - Thermochemistry -
 -------------------
 Temperature   298.150 Kelvin.  Pressure   1.00000 Atm.
 Atom     1 has atomic number  6 and mass  12.00000

 Molecular mass:    45.03404 amu.
 Principal axes and moments of inertia in atomic units:
                           1         2         3
     Eigenvalues --    45.02004 188.88182 211.95834
           X            0.99918   0.04037   0.00008
           Y           -0.04037   0.99918   0.00005
           Z           -0.00008  -0.00006   1.00000
 This molecule is an asymmetric top.
 Rotational symmetry number  1.
 Rotational temperatures (Kelvin)      1.92390     0.45856     0.40864
 Rotational constants (GHZ):          40.08751     9.55487     8.51460
 Zero-point vibrational energy     167775.8 (Joules/Mol)
                                   40.09938 (Kcal/Mol)
 Warning -- explicit consideration of   3 degrees of freedom as
           vibrations may cause significant error
 Vibrational temperatures:    108.70   367.87   627.80  1242.71  1275.21
          (Kelvin)           1536.80  1579.18  1783.07  1914.15  2000.73
                             2028.30  2136.02  2149.52  4146.02  4155.48
                             4367.74  4461.50  4476.78

 Zero-point correction=                           0.063902 (Hartree/Particle)
 Thermal correction to Energy=                    0.068493
 Thermal correction to Enthalpy=                  0.069437
 Thermal correction to Gibbs Free Energy=         0.037163
 Sum of electronic and zero-point Energies=           -154.375784
 Sum of electronic and thermal Energies=              -154.371193
 Sum of electronic and thermal Enthalpies=            -154.370249
 Sum of electronic and thermal Free Energies=         -154.402524

                     E (Thermal)             CV                S
                      KCal/Mol        Cal/Mol-Kelvin    Cal/Mol-Kelvin
 Total                   42.980             13.415             67.928
 Electronic               0.000              0.000              1.377
 Translational            0.889              2.981             37.340
 Rotational               0.889              2.981             22.115
 Vibrational             41.203              7.453              7.095
 Vibration     1          0.599              1.965              4.003
 Vibration     2          0.666              1.753              1.691
 Vibration     3          0.797              1.391              0.838

                           ! Non-Optimized Parameters !
 Normal termination of Gaussian 16 at Fri Sep 29 04:46:59 2023.
 Gaussian 16:  ES64L-G16RevB.01 20-Dec-2017

 ---------------------------------
 # rohf/gen geom=check guess=check
 ---------------------------------

 -------------------------
 ethoxyl, ROHF/cc-pVTZ-F12
 -------------------------
 Structure from the checkpoint file:  "c2h5o.chk"
 Charge =  0 Multiplicity = 2

                         Standard orientation:
 ---------------------------------------------------------------------
 Center     Atomic      Atomic             Coordinates (Angstroms)
 Number     Number       Type             X           Y           Z
 ---------------------------------------------------------------------
      1          6           0       -1.187900   -0.194366    0.000037
      2          6           0        0.179755    0.474585   -0.000382
      3          8           0        1.255112   -0.362980   -0.000366
      4          1           0       -1.983573    0.552754    0.002771
      5          1           0       -1.306876   -0.819920   -0.884502
      6          1           0       -1.304097   -0.824480    0.881587
      7          1           0        0.300077    1.160436   -0.860270
      8          1           0        0.302438    1.153736    0.865411
 ---------------------------------------------------------------------

 SCF Done:  E(ROHF) =  -153.523413797     A.U. after   21 cycles

 The electronic state is 2-A.
 Alpha  occ. eigenvalues --  -20.59068 -11.28423 -11.22137  -1.32233  -1.00403
 Alpha  occ. eigenvalues --   -0.83305  -0.63857  -0.62934  -0.59528  -0.53767
 Alpha  occ. eigenvalues --   -0.51494  -0.45027  -0.14190
 Alpha virt. eigenvalues --    0.05023   0.05525   0.06790   0.07376   0.09496
 Alpha virt. eigenvalues --    0.09721   0.10026   0.16106   0.17134   0.17838
 Alpha virt. eigenvalues --    0.21645   0.22394   0.23080   0.24362   0.25288

 Mulliken charges and spin densities:
               1          2
     1  C   -0.195507  -0.000158
     2  C    0.099855   0.022166
     3  O   -0.323604   0.940192
     4  H    0.077918   0.000022
     5  H    0.077775   0.000417
     6  H    0.078237   0.000365
     7  H    0.092707   0.018020
     8  H    0.092619   0.018976
 Sum of Mulliken charges =  -0.00000   1.00000

 Dipole moment (field-independent basis, Debye):
    X=             -1.5332    Y=              1.1505    Z=              0.0032  Tot=              1.9169
 Quadrupole moment (field-independent basis, Debye-Ang):
   XX=            -21.9552   YY=            -19.2729   ZZ=            -18.1822
   XY=              0.9846   XZ=              0.0084   YZ=              0.0180

 Normal termination of Gaussian 16 at Fri Sep 29 04:48:32 2023.
