 Gaussian 16, Revision B.01,

 ---------------------------------------
 # b3lyp/gen opt freq CPHF(Grid=OneStep)
 ---------------------------------------

 -----------------------------
 propanoic acid, B3LYP/pcseg-2
 -----------------------------
 Symbolic Z-matrix:
 Charge =  0 Multiplicity = 1

 SCF Done:  E(RB3LYP) =  -268.520088897     A.U. after   13 cycles
 Optimization completed.
    -- Stationary point found.
 Normal termination of Gaussian 16 at Fri Sep 29 01:08:00 2023.

 ------------------------------------------------------------------
 #N Geom=AllCheck Guess=TCheck SCRF=Check GenChk RB3LYP/ChkBas Freq
 ------------------------------------------------------------------

 Structure from the checkpoint file:  "c2h5cooh.chk"
 -----------------------------
 propanoic acid, B3LYP/pcseg-2
 -----------------------------
 Charge =  0 Multiplicity = 1

 SCF Done:  E(RB3LYP) =  -268.520088897     A.U. after    1 cycles

  Exact polarizability:  46.649  -1.203  50.617  -0.000  -0.000  34.632
 Approx polarizability:  70.764   0.659  60.537   0.000  -0.000  49.804

                      1                      2                      3
                     A"                     A"                     A'
 Frequencies --     49.4590               206.5617               250.5251
 Red. masses --      2.1622                 1.1133                 3.6442
 Frc consts  --      0.0031                 0.0280                 0.1348
 IR Inten    --      0.0000                 0.0084                 2.7690

                      4                      5                      6
                     A'                     A"                     A'
 Frequencies --    466.8768               519.6295               613.6308
 Red. masses --      4.4621                 1.4860                 4.0880
 Frc consts  --      0.5731                 0.2364                 0.9069
 IR Inten    --     19.5823                24.6690                17.0850

                      7                      8                      9
                     A"                     A'                     A"
 Frequencies --    651.9107               813.4177               815.8511
 Red. masses --      1.3557                 2.9353                 1.4417
 Frc consts  --      0.3395                 1.1443                 0.5654
 IR Inten    --     87.0904                 9.8954                16.2594

                     10                     11                     12
                     A'                     A'                     A"
 Frequencies --   1012.2064              1080.6535              1112.8419
 Red. masses --      1.7563                 2.3939                 1.7246
 Frc consts  --      1.0602                 1.6472                 1.2584
 IR Inten    --      0.7682                97.7140                 0.4778

                     13                     14                     15
                     A'                     A"                     A'
 Frequencies --   1159.6045              1286.6933              1304.3220
 Red. masses --      2.5549                 1.1743                 1.5258
 Frc consts  --      2.0241                 1.1455                 1.5294
 IR Inten    --    231.8383                 0.0928                 4.0303

                     16                     17                     18
                     A'                     A'                     A'
 Frequencies --   1401.9539              1423.9289              1460.8207
 Red. masses --      2.0575                 1.2347                 1.0780
 Frc consts  --      2.3826                 1.4750                 1.3554
 IR Inten    --     44.5882                 4.0477                16.2797

                     19                     20                     21
                     A"                     A'                     A'
 Frequencies --   1494.9101              1503.0179              1809.8107
 Red. masses --      1.0364                 1.0566                 9.4504
 Frc consts  --      1.3646                 1.4063                18.2375
 IR Inten    --      7.3546                10.0215               298.1853

                     22                     23                     24
                     A'                     A'                     A"
 Frequencies --   3040.6448              3049.3176              3066.1138
 Red. masses --      1.0611                 1.0353                 1.1000
 Frc consts  --      5.7800                 5.6717                 6.0931
 IR Inten    --     10.8160                19.3808                 2.7529

                     25                     26                     27
                     A'                     A"                     A'
 Frequencies --   3113.3829              3119.5988              3748.8127
 Red. masses --      1.1019                 1.1026                 1.0642
 Frc consts  --      6.2932                 6.3220                 8.8119
 IR Inten    --     19.5711                20.1293                60.9721

 - Thermochemistry -
 -------------------
 Temperature   298.150 Kelvin.  Pressure   1.00000 Atm.
 Atom     1 has atomic number  6 and mass  12.00000

 Molecular mass:    74.03678 amu.
 Principal axes and moments of inertia in atomic units:
                           1         2         3
     Eigenvalues --   176.81351 475.32600 630.17325
           X           -0.19057   0.98167   0.00000
           Y            0.98167   0.19057   0.00000
           Z           -0.00000   0.00000   1.00000
 This molecule is an asymmetric top.
 Rotational symmetry number  1.
 Rotational temperatures (Kelvin)      0.48986     0.18222     0.13744
 Rotational constants (GHZ):          10.20703     3.79685     2.86388
 Zero-point vibrational energy     236720.0 (Joules/Mol)
                                   56.57744 (Kcal/Mol)
 Warning -- explicit consideration of   6 degrees of freedom as
           vibrations may cause significant error
 Vibrational temperatures:     71.16   297.20   360.45   671.73   747.63
          (Kelvin)            882.88   937.95  1170.33  1173.83  1456.34
                             1554.82  1601.13  1668.41  1851.26  1876.63
                             2017.10  2048.72  2101.80  2150.84  2162.51
                             2603.91  4374.81  4387.29  4411.45  4479.46
                             4488.41  5393.71

 Zero-point correction=                           0.090162 (Hartree/Particle)
 Thermal correction to Energy=                    0.095921
 Thermal correction to Enthalpy=                  0.096865
 Thermal correction to Gibbs Free Energy=         0.060814
 Sum of electronic and zero-point Energies=           -268.429927
 Sum of electronic and thermal Energies=              -268.424168
 Sum of electronic and thermal Enthalpies=            -268.423224
 Sum of electronic and thermal Free Energies=         -268.459275

                     E (Thermal)             CV                S
                      KCal/Mol        Cal/Mol-Kelvin    Cal/Mol-Kelvin
 Total                   60.191             19.170             75.875
 Electronic               0.000              0.000              0.000
 Translational            0.889              2.981             38.822
 Rotational               0.889              2.981             25.474
 Vibrational             58.414             13.209             11.578
 Vibration     1          0.595              1.978              4.839
 Vibration     2          0.641              1.831              2.074
 Vibration     3          0.663              1.762              1.727
 Vibration     4          0.824              1.324              0.746
 Vibration     5          0.875              1.207              0.611
 Vibration     6          0.973              1.003              0.427

                           ! Non-Optimized Parameters !
 Normal termination of Gaussian 16 at Fri Sep 29 01:14:44 2023.
 Gaussian 16:  ES64L-G16RevB.01 20-Dec-2017

 ---------------------------------
 # rohf/gen geom=check guess=check
 ---------------------------------

 --------------------------------
 propanoic acid, ROHF/cc-pVTZ-F12
 --------------------------------
 Structure from the checkpoint file:  "c2h5cooh.chk"
 Charge =  0 Multiplicity = 1

                         Standard orientation:
 ---------------------------------------------------------------------
 Center     Atomic      Atomic             Coordinates (Angstroms)
 Number     Number       Type             X           Y           Z
 ---------------------------------------------------------------------
      1          6           0        0.000000    0.572404    0.000000
      2          6           0       -0.589303   -0.816153    0.000000
      3          6           0        0.459883   -1.919597    0.000000
      4          8           0       -0.968652    1.522790    0.000000
      5          8           0        1.170513    0.849724    0.000000
      6          1           0       -1.247705   -0.889201    0.868946
      7          1           0       -1.247705   -0.889201   -0.868946
      8          1           0       -0.021525   -2.897107    0.000000
      9          1           0        1.100502   -1.852905   -0.877945
     10          1           0        1.100502   -1.852905    0.877945
     11          1           0       -0.522434    2.381273    0.000000
 ---------------------------------------------------------------------

 SCF Done:  E(ROHF) =  -266.969925581     A.U. after   11 cycles

 The electronic state is 1-A'.
 Alpha  occ. eigenvalues --  -20.60923 -20.54817 -11.38460 -11.24917 -11.22320
 Alpha  occ. eigenvalues --   -1.46433  -1.36212  -1.06675  -0.91631  -0.79553
 Alpha  occ. eigenvalues --   -0.70554  -0.68978  -0.66097  -0.59831  -0.59378
 Alpha  occ. eigenvalues --   -0.53691  -0.52835  -0.50621  -0.48558  -0.45321
 Alpha virt. eigenvalues --    0.04784   0.05092   0.05592   0.06835   0.08702
 Alpha virt. eigenvalues --    0.09094   0.09125   0.09969   0.10540   0.12221
 Alpha virt. eigenvalues --    0.16352   0.16434   0.17329   0.18712   0.19048

 Mulliken charges and spin densities:
               1          2
     1  C    0.769250   0.000000
     2  C   -0.085350   0.000000
     3  C   -0.273204   0.000000
     4  O   -0.716000   0.000000
     5  O   -0.627778   0.000000
     6  H    0.099179   0.000000
     7  H    0.099179   0.000000
     8  H    0.090128   0.000000
     9  H    0.103351   0.000000
    10  H    0.103351   0.000000
    11  H    0.437895   0.000000
 Sum of Mulliken charges =  -0.00000   0.00000

 Dipole moment (field-independent basis, Debye):
    X=             -1.7412    Y=             -0.6315    Z=              0.0000  Tot=              1.8522
 Quadrupole moment (field-independent basis, Debye-Ang):
   XX=            -35.5582   YY=            -25.5667   ZZ=            -29.5875
   XY=             -0.6967   XZ=              0.0000   YZ=              0.0000

 Normal termination of Gaussian 16 at Fri Sep 29 01:17:15 2023.
