 Gaussian 16, Revision B.01,
 Gaussian 16:  ES64L-G16RevB.01 20-Dec-2017

 --------------------
 # b3lyp/gen opt freq
 --------------------

 ---------------------------
 chloroethane, B3LYP/pcseg-2
 ---------------------------
 Symbolic Z-matrix:
 Charge =  0 Multiplicity = 1

 SCF Done:  E(RB3LYP) =  -539.501912942     A.U. after   12 cycles
 SCF Done:  E(RB3LYP) =  -539.501916139     A.U. after    7 cycles
 Optimization completed.
    -- Stationary point found.
 Normal termination of Gaussian 16 at Wed Jun 15 10:20:54 2022.

 ------------------------------------------------------------------
 #N Geom=AllCheck Guess=TCheck SCRF=Check GenChk RB3LYP/ChkBas Freq
 ------------------------------------------------------------------

 Structure from the checkpoint file:  "/wrk/irikura/Gau-1053.chk"
 ---------------------------
 chloroethane, B3LYP/pcseg-2
 ---------------------------
 Charge =  0 Multiplicity = 1

                         Standard orientation:
 ---------------------------------------------------------------------
 Center     Atomic      Atomic             Coordinates (Angstroms)
 Number     Number       Type             X           Y           Z
 ---------------------------------------------------------------------
      1          6           0        1.506625    0.676759    0.000000
      2          6           0        0.000000    0.817452    0.000000
      3          1           0        1.963242    1.669132    0.000000
      4          1           0        1.851575    0.141540    0.883433
      5          1           0        1.851575    0.141540   -0.883433
      6         17           0       -0.822562   -0.799228    0.000000
      7          1           0       -0.361297    1.334701    0.884366
      8          1           0       -0.361297    1.334701   -0.884366
 ---------------------------------------------------------------------

 SCF Done:  E(RB3LYP) =  -539.501916139     A.U. after    1 cycles

 The electronic state is 1-A'.
 Alpha  occ. eigenvalues -- -101.49507 -10.23490 -10.17978  -9.44039  -7.20182
 Alpha  occ. eigenvalues --   -7.19323  -7.19316  -0.85512  -0.74773  -0.62544
 Alpha  occ. eigenvalues --   -0.48216  -0.45612  -0.41575  -0.38303  -0.37523
 Alpha  occ. eigenvalues --   -0.29928  -0.29772
 Alpha virt. eigenvalues --    0.00358   0.02827   0.04706   0.05400   0.06855
 Alpha virt. eigenvalues --    0.09104   0.13343   0.14959   0.17447   0.17688
 Alpha virt. eigenvalues --    0.21405   0.22657   0.27009   0.31235   0.31806

 Mulliken charges:
               1
     1  C   -0.057725
     2  C    0.020941
     3  H    0.025913
     4  H    0.037181
     5  H    0.037181
     6  Cl  -0.183111
     7  H    0.059810
     8  H    0.059810
 Sum of Mulliken charges =  -0.00000

 Dipole moment (field-independent basis, Debye):
    X=              1.1617    Y=              1.8677    Z=             -0.0000  Tot=              2.1995
 Quadrupole moment (field-independent basis, Debye-Ang):
   XX=            -27.2079   YY=            -25.9892   ZZ=            -26.4570
   XY=             -0.3357   XZ=             -0.0000   YZ=             -0.0000

  Exact polarizability:  40.060   6.632  41.237   0.000   0.000  31.229
 Approx polarizability:  51.056   8.793  59.566  -0.000  -0.000  44.484

                      1                      2                      3
                     A"                     A'                     A'
 Frequencies --    257.3554               330.2337               653.4258
 Red. masses --      1.0919                 3.2248                 4.8061
 Frc consts  --      0.0426                 0.2072                 1.2090
 IR Inten    --      0.0953                 2.9449                30.5810

                      4                      5                      6
                     A"                     A'                     A"
 Frequencies --    791.2709               978.3732              1074.3087
 Red. masses --      1.1090                 1.9673                 1.2368
 Frc consts  --      0.4091                 1.1095                 0.8410
 IR Inten    --      2.7827                19.9819                 0.0008

                      7                      8                      9
                     A'                     A"                     A'
 Frequencies --   1085.8061              1275.8145              1316.7083
 Red. masses --      2.0012                 1.2165                 1.2217
 Frc consts  --      1.3901                 1.1666                 1.2479
 IR Inten    --      0.6686                 0.3667                37.9861

                     10                     11                     12
                     A'                     A"                     A'
 Frequencies --   1415.8671              1484.1876              1492.8704
 Red. masses --      1.2340                 1.0370                 1.0813
 Frc consts  --      1.4575                 1.3459                 1.4199
 IR Inten    --      4.7573                 8.8526                 1.0505

                     13                     14                     15
                     A'                     A'                     A'
 Frequencies --   1501.4395              3034.5446              3082.9470
 Red. masses --      1.0589                 1.0382                 1.0630
 Frc consts  --      1.4064                 5.6328                 5.9528
 IR Inten    --      3.0794                17.0540                 6.9017

                     16                     17                     18
                     A'                     A"                     A"
 Frequencies --   3101.4317              3112.8998              3144.0585
 Red. masses --      1.0904                 1.1044                 1.1101
 Frc consts  --      6.1799                 6.3053                 6.4656
 IR Inten    --     28.5353                 4.7532                16.3063

 - Thermochemistry -
 -------------------
 Temperature   298.150 Kelvin.  Pressure   1.00000 Atm.
 Atom     1 has atomic number  6 and mass  12.00000

 Molecular mass:    64.00798 amu.
 Principal axes and moments of inertia in atomic units:
                           1         2         3
     Eigenvalues --    56.89533 334.45786 368.85856
           X            0.79129  -0.61145   0.00000
           Y            0.61145   0.79129   0.00000
           Z            0.00000  -0.00000   1.00000
 This molecule is an asymmetric top.
 Rotational symmetry number  1.
 Rotational temperatures (Kelvin)      1.52234     0.25897     0.23482
 Rotational constants (GHZ):          31.72037     5.39602     4.89277
 Zero-point vibrational energy     174257.3 (Joules/Mol)
                                   41.64849 (Kcal/Mol)
 Warning -- explicit consideration of   2 degrees of freedom as
           vibrations may cause significant error
 Vibrational temperatures:    370.28   475.13   940.13  1138.46  1407.66
          (Kelvin)           1545.69  1562.23  1835.61  1894.45  2037.12
                             2135.41  2147.91  2160.24  4366.03  4435.67
                             4462.27  4478.77  4523.60

 Zero-point correction=                           0.066371 (Hartree/Particle)
 Thermal correction to Energy=                    0.070416
 Thermal correction to Enthalpy=                  0.071361
 Thermal correction to Gibbs Free Energy=         0.040135
 Sum of electronic and zero-point Energies=           -539.435545
 Sum of electronic and thermal Energies=              -539.431500
 Sum of electronic and thermal Enthalpies=            -539.430556
 Sum of electronic and thermal Free Energies=         -539.461781

                     E (Thermal)             CV                S
                      KCal/Mol        Cal/Mol-Kelvin    Cal/Mol-Kelvin
 Total                   44.187             12.542             65.720
 Electronic               0.000              0.000              0.000
 Translational            0.889              2.981             38.388
 Rotational               0.889              2.981             23.466
 Vibrational             42.409              6.580              3.866
 Vibration     1          0.667              1.750              1.680
 Vibration     2          0.713              1.615              1.259

 Optimization completed.
    -- Stationary point found.
 Normal termination of Gaussian 16 at Wed Jun 15 10:22:18 2022.
