 Gaussian 16, Revision B.01,

 ---------------------------------------
 # b3lyp/gen opt freq CPHF(Grid=OneStep)
 ---------------------------------------

 -----------------------
 propanal, B3LYP/pcseg-2
 -----------------------
 Symbolic Z-matrix:
 Charge =  0 Multiplicity = 1

 SCF Done:  E(RB3LYP) =  -193.229349601     A.U. after   13 cycles
 Optimization completed.
    -- Stationary point found.
 Normal termination of Gaussian 16 at Sat Sep 30 15:02:20 2023.

 ------------------------------------------------------------------
 #N Geom=AllCheck Guess=TCheck SCRF=Check GenChk RB3LYP/ChkBas Freq
 ------------------------------------------------------------------

 Structure from the checkpoint file:  "c2h5cho.chk"
 -----------------------
 propanal, B3LYP/pcseg-2
 -----------------------
 Charge =  0 Multiplicity = 1

 SCF Done:  E(RB3LYP) =  -193.229349601     A.U. after    1 cycles

  Exact polarizability:  44.399  -0.036  44.826  -0.000   0.000  32.419
 Approx polarizability:  53.571  -3.346  67.222   0.000   0.000  46.421

                      1                      2                      3
                     A"                     A"                     A'
 Frequencies --    137.1950               225.9531               253.0297
 Red. masses --      1.4239                 1.2538                 3.7354
 Frc consts  --      0.0158                 0.0377                 0.1409
 IR Inten    --      2.6537                 0.5698                 8.4621

                      4                      5                      6
                     A"                     A'                     A'
 Frequencies --    668.1642               671.9790               846.8255
 Red. masses --      1.1690                 3.3081                 3.2501
 Frc consts  --      0.3075                 0.8801                 1.3732
 IR Inten    --      3.1509                 5.8878                24.2281

                      7                      8                      9
                     A"                     A'                     A'
 Frequencies --    905.1453              1004.2967              1110.5624
 Red. masses --      1.1596                 1.4763                 2.2725
 Frc consts  --      0.5598                 0.8773                 1.6514
 IR Inten    --      1.7800                 1.1734                14.3718

                     10                     11                     12
                     A"                     A"                     A'
 Frequencies --   1147.7795              1281.9116              1364.4208
 Red. masses --      1.8132                 1.1880                 1.7430
 Frc consts  --      1.4074                 1.1502                 1.9118
 IR Inten    --      0.3281                 0.2835                11.1529

                     13                     14                     15
                     A'                     A'                     A'
 Frequencies --   1411.9881              1425.3300              1448.9327
 Red. masses --      1.1781                 1.1918                 1.1205
 Frc consts  --      1.3838                 1.4265                 1.3859
 IR Inten    --      0.9381                16.2143                15.7799

                     16                     17                     18
                     A"                     A'                     A'
 Frequencies --   1493.8686              1500.7214              1803.1540
 Red. masses --      1.0368                 1.0510                 9.6539
 Frc consts  --      1.3632                 1.3946                18.4935
 IR Inten    --      7.4749                 8.2973               174.4363

                     19                     20                     21
                     A'                     A'                     A"
 Frequencies --   2866.8289              3004.6441              3023.3963
 Red. masses --      1.0821                 1.0616                 1.0980
 Frc consts  --      5.2397                 5.6465                 5.9135
 IR Inten    --    135.5825                26.1178                 8.4675

                     22                     23                     24
                     A'                     A'                     A"
 Frequencies --   3048.2194              3112.3989              3115.2102
 Red. masses --      1.0351                 1.1024                 1.1021
 Frc consts  --      5.6666                 6.2919                 6.3015
 IR Inten    --     17.7726                18.8166                19.6026

 - Thermochemistry -
 -------------------
 Temperature   298.150 Kelvin.  Pressure   1.00000 Atm.
 Atom     1 has atomic number  6 and mass  12.00000

 Molecular mass:    58.04186 amu.
 Principal axes and moments of inertia in atomic units:
                           1         2         3
     Eigenvalues --   106.45889 310.57414 395.12990
           X            0.76457  -0.64454   0.00000
           Y            0.64454   0.76457   0.00000
           Z            0.00000  -0.00000   1.00000
 This molecule is an asymmetric top.
 Rotational symmetry number  1.
 Rotational temperatures (Kelvin)      0.81359     0.27888     0.21920
 Rotational constants (GHZ):          16.95247     5.81098     4.56746
 Zero-point vibrational energy     220543.3 (Joules/Mol)
                                   52.71111 (Kcal/Mol)
 Warning -- explicit consideration of   3 degrees of freedom as
           vibrations may cause significant error
 Vibrational temperatures:    197.39   325.10   364.05   961.34   966.83
          (Kelvin)           1218.39  1302.30  1444.96  1597.85  1651.40
                             1844.38  1963.10  2031.54  2050.73  2084.69
                             2149.34  2159.20  2594.34  4124.73  4323.01
                             4349.99  4385.71  4478.05  4482.09

 Zero-point correction=                           0.084000 (Hartree/Particle)
 Thermal correction to Energy=                    0.089004
 Thermal correction to Enthalpy=                  0.089949
 Thermal correction to Gibbs Free Energy=         0.056705
 Sum of electronic and zero-point Energies=           -193.145349
 Sum of electronic and thermal Energies=              -193.140345
 Sum of electronic and thermal Enthalpies=            -193.139401
 Sum of electronic and thermal Free Energies=         -193.172645

                     E (Thermal)             CV                S
                      KCal/Mol        Cal/Mol-Kelvin    Cal/Mol-Kelvin
 Total                   55.851             15.909             69.967
 Electronic               0.000              0.000              0.000
 Translational            0.889              2.981             38.096
 Rotational               0.889              2.981             24.083
 Vibrational             54.074              9.948              7.787
 Vibration     1          0.614              1.916              2.843
 Vibration     2          0.650              1.801              1.911
 Vibration     3          0.664              1.758              1.709

 Optimization completed.
    -- Stationary point found.
 Normal termination of Gaussian 16 at Sat Sep 30 15:07:00 2023.
 Gaussian 16:  ES64L-G16RevB.01 20-Dec-2017

 ---------------------------------
 # rohf/gen geom=check guess=check
 ---------------------------------

 --------------------------
 propanal, ROHF/cc-pVTZ-F12
 --------------------------
 Structure from the checkpoint file:  "c2h5cho.chk"
 Charge =  0 Multiplicity = 1

                         Standard orientation:
 ---------------------------------------------------------------------
 Center     Atomic      Atomic             Coordinates (Angstroms)
 Number     Number       Type             X           Y           Z
 ---------------------------------------------------------------------
      1          6           0        1.458806    0.471267    0.000000
      2          6           0        0.000000    0.905386    0.000000
      3          6           0       -0.996340   -0.223646    0.000000
      4          8           0       -0.716628   -1.394430    0.000000
      5          1           0        2.117820    1.338877    0.000000
      6          1           0        1.686690   -0.132781    0.877158
      7          1           0        1.686690   -0.132781   -0.877158
      8          1           0       -0.236850    1.533316    0.867216
      9          1           0       -0.236850    1.533316   -0.867216
     10          1           0       -2.059277    0.097447    0.000000
 ---------------------------------------------------------------------

 SCF Done:  E(ROHF) =  -192.036822809     A.U. after   11 cycles

 The electronic state is 1-A'.
 Alpha  occ. eigenvalues --  -20.55554 -11.33080 -11.24492 -11.22172  -1.39602
 Alpha  occ. eigenvalues --   -1.06214  -0.91250  -0.77322  -0.68198  -0.63437
 Alpha  occ. eigenvalues --   -0.63054  -0.54434  -0.53127  -0.52157  -0.49265
 Alpha  occ. eigenvalues --   -0.42131
 Alpha virt. eigenvalues --    0.04563   0.05012   0.05950   0.06647   0.08735
 Alpha virt. eigenvalues --    0.08905   0.09270   0.09958   0.10576   0.12497
 Alpha virt. eigenvalues --    0.14537   0.17034   0.17600   0.19519   0.21548

 Mulliken charges and spin densities:
               1          2
     1  C   -0.280562   0.000000
     2  C   -0.091834   0.000000
     3  C    0.382737   0.000000
     4  O   -0.554702   0.000000
     5  H    0.085561   0.000000
     6  H    0.104982   0.000000
     7  H    0.104982   0.000000
     8  H    0.078307   0.000000
     9  H    0.078307   0.000000
    10  H    0.092220   0.000000
 Sum of Mulliken charges =  -0.00000   0.00000

 Dipole moment (field-independent basis, Debye):
    X=             -0.1271    Y=              3.1156    Z=             -0.0000  Tot=              3.1181
 Quadrupole moment (field-independent basis, Debye-Ang):
   XX=            -23.8918   YY=            -29.3862   ZZ=            -24.4594
   XY=             -2.0070   XZ=             -0.0000   YZ=              0.0000

 Normal termination of Gaussian 16 at Sat Sep 30 15:08:26 2023.
