 Gaussian 16, Revision B.01,
 Gaussian 16:  ES64L-G16RevB.01 20-Dec-2017

 ---------------------------------------
 # b3lyp/gen opt freq CPHF(Grid=OneStep)
 ---------------------------------------

 --------------------
 ethyl, B3LYP/pcseg-2
 --------------------
 Symbolic Z-matrix:
 Charge =  0 Multiplicity = 2

 SCF Done:  E(UB3LYP) =  -79.1150485617     A.U. after   12 cycles
 SCF Done:  E(UB3LYP) =  -79.1730723012     A.U. after   11 cycles
 SCF Done:  E(UB3LYP) =  -79.1932524464     A.U. after   11 cycles
 SCF Done:  E(UB3LYP) =  -79.1944066756     A.U. after   10 cycles
 SCF Done:  E(UB3LYP) =  -79.1949164624     A.U. after   10 cycles
 SCF Done:  E(UB3LYP) =  -79.1949394500     A.U. after    8 cycles
 SCF Done:  E(UB3LYP) =  -79.1949473553     A.U. after    8 cycles
 SCF Done:  E(UB3LYP) =  -79.1949484291     A.U. after    7 cycles
 Optimization completed.
    -- Stationary point found.
 Normal termination of Gaussian 16 at Fri Sep 15 21:27:54 2023.

 ------------------------------------------------------------------
 #N Geom=AllCheck Guess=TCheck SCRF=Check GenChk UB3LYP/ChkBas Freq
 ------------------------------------------------------------------

 Structure from the checkpoint file:  "/wrk/irikura/Gau-51639.chk"
 --------------------
 ethyl, B3LYP/pcseg-2
 --------------------
 Charge =  0 Multiplicity = 2

                         Standard orientation:
 ---------------------------------------------------------------------
 Center     Atomic      Atomic             Coordinates (Angstroms)
 Number     Number       Type             X           Y           Z
 ---------------------------------------------------------------------
      1          6           0        0.009158   -0.691752   -0.000000
      2          6           0        0.009158    0.792095    0.000000
      3          1           0        0.502716   -1.098842    0.884331
      4          1           0       -1.011594   -1.101158   -0.000000
      5          1           0        0.502716   -1.098842   -0.884331
      6          1           0       -0.051865    1.348392   -0.924022
      7          1           0       -0.051865    1.348392    0.924022
 ---------------------------------------------------------------------

 SCF Done:  E(UB3LYP) =  -79.1949484291     A.U. after    1 cycles

 The electronic state is 2-A'.
 Alpha  occ. eigenvalues --  -10.17785 -10.16841  -0.76045  -0.61229  -0.45581
 Alpha  occ. eigenvalues --   -0.41842  -0.39763  -0.36216  -0.20694
 Alpha virt. eigenvalues --    0.02067   0.04758   0.06146   0.07725   0.10598
 Alpha virt. eigenvalues --    0.15652   0.16329   0.18300   0.20304   0.20915
 Alpha virt. eigenvalues --    0.25862   0.27983   0.32872   0.33939   0.34620

  Beta  occ. eigenvalues --  -10.16923 -10.16334  -0.74408  -0.58864  -0.44973
  Beta  occ. eigenvalues --   -0.40328  -0.38989  -0.35772
  Beta virt. eigenvalues --   -0.05876   0.02180   0.05146   0.06184   0.07879
  Beta virt. eigenvalues --    0.10636   0.15748   0.16520   0.18371   0.20929
  Beta virt. eigenvalues --    0.24359   0.26076   0.30467   0.33076   0.34255

 Mulliken charges and spin densities:
               1          2
     1  C   -0.033279  -0.082278
     2  C   -0.165487   1.059480
     3  H    0.027890   0.015068
     4  H    0.035301   0.063736
     5  H    0.027890   0.015068
     6  H    0.053843  -0.035537
     7  H    0.053843  -0.035537
 Sum of Mulliken charges =   0.00000   1.00000

 Dipole moment (field-independent basis, Debye):
    X=             -0.1214    Y=             -0.2956    Z=             -0.0000  Tot=              0.3196
 Quadrupole moment (field-independent basis, Debye-Ang):
   XX=            -15.4797   YY=            -14.5938   ZZ=            -13.7792
   XY=             -0.1608   XZ=             -0.0000   YZ=              0.0000

  Exact polarizability:  23.173   0.405  30.095  -0.000  -0.000  24.912
 Approx polarizability:  30.083   0.653  35.573  -0.000  -0.000  32.473

                      1                      2                      3
                     A"                     A'                     A"
 Frequencies --     99.7874               495.3454               813.5153
 Red. masses --      1.0082                 1.2143                 1.0505
 Frc consts  --      0.0059                 0.1755                 0.4096
 IR Inten    --      0.0009                60.2508                 1.8634

                      4                      5                      6
                     A'                     A'                     A"
 Frequencies --    981.0202              1061.0413              1194.8704
 Red. masses --      1.3336                 3.3573                 1.4740
 Frc consts  --      0.7562                 2.2269                 1.2399
 IR Inten    --      0.6471                 0.0905                 2.0830

                      7                      8                      9
                     A'                     A'                     A"
 Frequencies --   1400.2915              1466.8161              1479.1748
 Red. masses --      1.1846                 1.0967                 1.0341
 Frc consts  --      1.3686                 1.3903                 1.3330
 IR Inten    --      1.9246                 2.9555                 5.8394

                     10                     11                     12
                     A'                     A'                     A'
 Frequencies --   1481.3621              2949.5121              3040.1837
 Red. masses --      1.1333                 1.0619                 1.0669
 Frc consts  --      1.4653                 5.4428                 5.8097
 IR Inten    --      2.9714                26.4379                22.5327

                     13                     14                     15
                     A"                     A'                     A"
 Frequencies --   3083.6047              3147.1805              3245.7163
 Red. masses --      1.1020                 1.0507                 1.1186
 Frc consts  --      6.1739                 6.1315                 6.9430
 IR Inten    --     20.6184                15.0319                13.6985

 - Thermochemistry -
 -------------------
 Temperature   298.150 Kelvin.  Pressure   1.00000 Atm.
 Atom     1 has atomic number  6 and mass  12.00000

 Molecular mass:    29.03913 amu.
 Principal axes and moments of inertia in atomic units:
                           1         2         3
     Eigenvalues --    17.29924  79.01809  85.26872
           X           -0.00646   0.00000   0.99998
           Y            0.99998   0.00000   0.00646
           Z           -0.00000   1.00000  -0.00000
 This molecule is an asymmetric top.
 Rotational symmetry number  1.
 Rotational temperatures (Kelvin)      5.00680     1.09613     1.01578
 Rotational constants (GHZ):         104.32487    22.83960    21.16534
 Zero-point vibrational energy     155152.2 (Joules/Mol)
                                   37.08227 (Kcal/Mol)
 Warning -- explicit consideration of   2 degrees of freedom as
           vibrations may cause significant error
 Vibrational temperatures:    143.57   712.69  1170.47  1411.47  1526.60
          (Kelvin)           1719.15  2014.71  2110.42  2128.20  2131.35
                             4243.69  4374.15  4436.62  4528.09  4669.86

 Zero-point correction=                           0.059094 (Hartree/Particle)
 Thermal correction to Energy=                    0.063074
 Thermal correction to Enthalpy=                  0.064018
 Thermal correction to Gibbs Free Energy=         0.034844
 Sum of electronic and zero-point Energies=            -79.135854
 Sum of electronic and thermal Energies=               -79.131875
 Sum of electronic and thermal Enthalpies=             -79.130931
 Sum of electronic and thermal Free Energies=          -79.160105

                     E (Thermal)             CV                S
                      KCal/Mol        Cal/Mol-Kelvin    Cal/Mol-Kelvin
 Total                   39.579             11.073             61.402
 Electronic               0.000              0.000              1.377
 Translational            0.889              2.981             36.032
 Rotational               0.889              2.981             19.394
 Vibrational             37.802              5.111              4.598
 Vibration     1          0.604              1.949              3.458
 Vibration     2          0.851              1.260              0.670

 Optimization completed.
    -- Stationary point found.
 Normal termination of Gaussian 16 at Fri Sep 15 21:34:23 2023.
