 Gaussian 16, Revision B.01,

 ---------------------------------------
 # b3lyp/gen opt freq CPHF(Grid=OneStep)
 ---------------------------------------

 ---------------------------
 fluoroethane, B3LYP/pcseg-2
 ---------------------------
 Symbolic Z-matrix:
 Charge =  0 Multiplicity = 1

 SCF Done:  E(RB3LYP) =  -179.144259916     A.U. after   11 cycles
 Optimization completed.
    -- Stationary point found.
 Normal termination of Gaussian 16 at Fri Sep 29 22:55:06 2023.

 ------------------------------------------------------------------
 #N Geom=AllCheck Guess=TCheck SCRF=Check GenChk RB3LYP/ChkBas Freq
 ------------------------------------------------------------------

 Structure from the checkpoint file:  "c2h5f.chk"
 ---------------------------
 fluoroethane, B3LYP/pcseg-2
 ---------------------------
 Charge =  0 Multiplicity = 1

 SCF Done:  E(RB3LYP) =  -179.144259916     A.U. after    1 cycles

  Exact polarizability:  28.825  -0.831  27.718  -0.000  -0.000  26.005
 Approx polarizability:  36.262   1.079  35.182   0.000  -0.000  34.421

                      1                      2                      3
                     A"                     A'                     A"
 Frequencies --    249.2972               411.3582               814.3908
 Red. masses --      1.1294                 2.9217                 1.0816
 Frc consts  --      0.0414                 0.2913                 0.4226
 IR Inten    --      0.5103                 6.1761                 0.6744

                      4                      5                      6
                     A'                     A'                     A'
 Frequencies --    882.3340              1051.4184              1121.1976
 Red. masses --      2.2954                 4.1429                 2.1005
 Frc consts  --      1.0529                 2.6984                 1.5557
 IR Inten    --     22.2118                89.8557                21.9035

                      7                      8                      9
                     A"                     A"                     A'
 Frequencies --   1186.3527              1299.0860              1402.2897
 Red. masses --      1.5304                 1.1023                 1.2109
 Frc consts  --      1.2690                 1.0960                 1.4029
 IR Inten    --      4.6544                 0.1243                 1.4069

                     10                     11                     12
                     A'                     A"                     A'
 Frequencies --   1421.3062              1480.0668              1498.0177
 Red. masses --      1.2960                 1.0385                 1.0562
 Frc consts  --      1.5425                 1.3403                 1.3965
 IR Inten    --     24.6061                 5.6704                 1.7199

                     13                     14                     15
                     A'                     A'                     A'
 Frequencies --   1519.6275              3038.3817              3040.9758
 Red. masses --      1.0886                 1.0405                 1.0510
 Frc consts  --      1.4811                 5.6596                 5.7261
 IR Inten    --      1.3040                25.5262                22.1487

                     16                     17                     18
                     A"                     A'                     A"
 Frequencies --   3078.8454              3103.8785              3119.2908
 Red. masses --      1.1090                 1.0997                 1.1051
 Frc consts  --      6.1937                 6.2419                 6.3355
 IR Inten    --     16.3478                25.3020                36.2797

 - Thermochemistry -
 -------------------
 Temperature   298.150 Kelvin.  Pressure   1.00000 Atm.
 Atom     1 has atomic number  6 and mass  12.00000

 Molecular mass:    48.03753 amu.
 Principal axes and moments of inertia in atomic units:
                           1         2         3
     Eigenvalues --    49.58132 193.88244 220.83551
           X            0.99010   0.14038   0.00000
           Y           -0.14038   0.99010   0.00000
           Z            0.00000  -0.00000   1.00000
 This molecule is an asymmetric top.
 Rotational symmetry number  1.
 Rotational temperatures (Kelvin)      1.74691     0.44673     0.39221
 Rotational constants (GHZ):          36.39962     9.30843     8.17233
 Zero-point vibrational energy     177753.8 (Joules/Mol)
                                   42.48418 (Kcal/Mol)
 Warning -- explicit consideration of   2 degrees of freedom as
           vibrations may cause significant error
 Vibrational temperatures:    358.68   591.85  1171.73  1269.48  1512.76
          (Kelvin)           1613.15  1706.90  1869.09  2017.58  2044.94
                             2129.49  2155.31  2186.41  4371.55  4375.29
                             4429.77  4465.79  4487.96

 Zero-point correction=                           0.067703 (Hartree/Particle)
 Thermal correction to Energy=                    0.071564
 Thermal correction to Enthalpy=                  0.072509
 Thermal correction to Gibbs Free Energy=         0.042534
 Sum of electronic and zero-point Energies=           -179.076557
 Sum of electronic and thermal Energies=              -179.072695
 Sum of electronic and thermal Enthalpies=            -179.071751
 Sum of electronic and thermal Free Energies=         -179.101726

                     E (Thermal)             CV                S
                      KCal/Mol        Cal/Mol-Kelvin    Cal/Mol-Kelvin
 Total                   44.907             11.702             63.088
 Electronic               0.000              0.000              0.000
 Translational            0.889              2.981             37.533
 Rotational               0.889              2.981             22.278
 Vibrational             43.130              5.740              3.277
 Vibration     1          0.662              1.764              1.736
 Vibration     2          0.775              1.446              0.922

 Optimization completed.
    -- Stationary point found.
 Normal termination of Gaussian 16 at Fri Sep 29 22:57:25 2023.
 Gaussian 16:  ES64L-G16RevB.01 20-Dec-2017

 ---------------------------------
 # rohf/gen geom=check guess=check
 ---------------------------------

 ------------------------------
 fluoroethane, ROHF/cc-pVTZ-F12
 ------------------------------
 Structure from the checkpoint file:  "c2h5f.chk"
 Charge =  0 Multiplicity = 1

                         Standard orientation:
 ---------------------------------------------------------------------
 Center     Atomic      Atomic             Coordinates (Angstroms)
 Number     Number       Type             X           Y           Z
 ---------------------------------------------------------------------
      1          6           0        0.000000    0.557149    0.000000
      2          6           0        1.130960   -0.443016    0.000000
      3          9           0       -1.231867   -0.110528    0.000000
      4          1           0        0.019061    1.191035    0.887891
      5          1           0        0.019061    1.191035   -0.887891
      6          1           0        2.088028    0.081674    0.000000
      7          1           0        1.087444   -1.076896    0.885149
      8          1           0        1.087444   -1.076896   -0.885149
 ---------------------------------------------------------------------

 SCF Done:  E(ROHF) =  -178.162838856     A.U. after   10 cycles

 The electronic state is 1-A'.
 Alpha  occ. eigenvalues --  -26.26664 -11.30714 -11.22619  -1.57516  -1.03556
 Alpha  occ. eigenvalues --   -0.86305  -0.69899  -0.68798  -0.64883  -0.58020
 Alpha  occ. eigenvalues --   -0.55115  -0.51113  -0.49801
 Alpha virt. eigenvalues --    0.05011   0.05546   0.06812   0.07690   0.09518
 Alpha virt. eigenvalues --    0.09637   0.10147   0.16983   0.18244   0.20103
 Alpha virt. eigenvalues --    0.22722   0.23150   0.25565   0.26027   0.26363

 Mulliken charges and spin densities:
               1          2
     1  C    0.147178  -0.000000
     2  C   -0.221757  -0.000000
     3  F   -0.399142  -0.000000
     4  H    0.102309  -0.000000
     5  H    0.102309  -0.000000
     6  H    0.088756  -0.000000
     7  H    0.090174  -0.000000
     8  H    0.090174  -0.000000
 Sum of Mulliken charges =  -0.00000  -0.00000

 Dipole moment (field-independent basis, Debye):
    X=              2.0253    Y=              0.8523    Z=              0.0000  Tot=              2.1973
 Quadrupole moment (field-independent basis, Debye-Ang):
   XX=            -21.1685   YY=            -18.0533   ZZ=            -18.0924
   XY=             -0.4147   XZ=              0.0000   YZ=             -0.0000

 Normal termination of Gaussian 16 at Fri Sep 29 22:57:55 2023.
