 Gaussian 16, Revision B.01,
 Gaussian 16:  ES64L-G16RevB.01 20-Dec-2017

 --------------------
 # b3lyp/gen opt freq
 --------------------

 ----------------------
 ethoxyl, B3LYP/pcseg-2
 ----------------------
 Symbolic Z-matrix:
 Charge =  0 Multiplicity = 2

 SCF Done:  E(UB3LYP) =  -154.426538989     A.U. after   20 cycles
 SCF Done:  E(UB3LYP) =  -154.438369494     A.U. after   16 cycles
 SCF Done:  E(UB3LYP) =  -154.439511490     A.U. after   21 cycles
 SCF Done:  E(UB3LYP) =  -154.439624169     A.U. after   15 cycles
 SCF Done:  E(UB3LYP) =  -154.439667939     A.U. after   14 cycles
 SCF Done:  E(UB3LYP) =  -154.439679599     A.U. after   14 cycles
 SCF Done:  E(UB3LYP) =  -154.439683678     A.U. after   13 cycles
 SCF Done:  E(UB3LYP) =  -154.439685726     A.U. after   13 cycles
 SCF Done:  E(UB3LYP) =  -154.439686167     A.U. after   13 cycles
 SCF Done:  E(UB3LYP) =  -154.439686424     A.U. after   12 cycles
 SCF Done:  E(UB3LYP) =  -154.439686622     A.U. after   12 cycles
 SCF Done:  E(UB3LYP) =  -154.439686575     A.U. after   12 cycles
 Optimization completed.
    -- Stationary point found.
 Normal termination of Gaussian 16 at Fri Jun 17 14:13:04 2022.

 ------------------------------------------------------------------
 #N Geom=AllCheck Guess=TCheck SCRF=Check GenChk UB3LYP/ChkBas Freq
 ------------------------------------------------------------------

 Structure from the checkpoint file:  "/wrk/irikura/Gau-5087.chk"
 ----------------------
 ethoxyl, B3LYP/pcseg-2
 ----------------------
 Charge =  0 Multiplicity = 2

                         Standard orientation:
 ---------------------------------------------------------------------
 Center     Atomic      Atomic             Coordinates (Angstroms)
 Number     Number       Type             X           Y           Z
 ---------------------------------------------------------------------
      1          6           0       -1.187900   -0.194366    0.000037
      2          6           0        0.179755    0.474585   -0.000382
      3          8           0        1.255112   -0.362980   -0.000366
      4          1           0       -1.983573    0.552754    0.002771
      5          1           0       -1.306876   -0.819920   -0.884502
      6          1           0       -1.304097   -0.824480    0.881587
      7          1           0        0.300077    1.160436   -0.860270
      8          1           0        0.302438    1.153736    0.865411
 ---------------------------------------------------------------------

 SCF Done:  E(UB3LYP) =  -154.439686575     A.U. after    1 cycles

 The electronic state is 2-A.
 Alpha  occ. eigenvalues --  -19.16869 -10.23659 -10.17076  -1.03390  -0.75310
 Alpha  occ. eigenvalues --   -0.62392  -0.50425  -0.46848  -0.43140  -0.40075
 Alpha  occ. eigenvalues --   -0.39210  -0.32642  -0.29272
 Alpha virt. eigenvalues --    0.01251   0.04215   0.05340   0.07103   0.09477
 Alpha virt. eigenvalues --    0.10524   0.14515   0.15199   0.17642   0.22180
 Alpha virt. eigenvalues --    0.22540   0.28872   0.30891   0.32050   0.32386

  Beta  occ. eigenvalues --  -19.14493 -10.23710 -10.17086  -0.98424  -0.74512
  Beta  occ. eigenvalues --   -0.61129  -0.47390  -0.45776  -0.42250  -0.38581
  Beta  occ. eigenvalues --   -0.37731  -0.27339
  Beta virt. eigenvalues --   -0.14741   0.01349   0.04304   0.05516   0.07135
  Beta virt. eigenvalues --    0.09800   0.11028   0.14525   0.15299   0.17823
  Beta virt. eigenvalues --    0.22731   0.23254   0.29356   0.31237   0.32232

 Mulliken charges and spin densities:
               1          2
     1  C   -0.040143   0.003294
     2  C    0.202367  -0.055621
     3  O   -0.318518   0.874705
     4  H    0.014086  -0.002250
     5  H    0.029519   0.003202
     6  H    0.029531   0.002957
     7  H    0.041083   0.085222
     8  H    0.042075   0.088489
 Sum of Mulliken charges =  -0.00000   1.00000

 Dipole moment (field-independent basis, Debye):
    X=             -1.6949    Y=              1.3716    Z=              0.0060  Tot=              2.1803
 Quadrupole moment (field-independent basis, Debye-Ang):
   XX=            -22.4037   YY=            -19.2607   ZZ=            -18.2551
   XY=              1.1291   XZ=              0.0090   YZ=              0.0185

  Exact polarizability:  33.848  -1.232  30.896  -0.043  -0.046  28.691
 Approx polarizability:  42.118  -4.505  42.036  -0.010   0.013  37.277

                      1                      2                      3
                      A                      A                      A
 Frequencies --     72.9773               255.5485               436.3444
 Red. masses --      1.7264                 1.0225                 2.9012
 Frc consts  --      0.0054                 0.0393                 0.3255
 IR Inten    --     15.0019                15.1090                 7.0364

                      4                      5                      6
                      A                      A                      A
 Frequencies --    863.6819               886.3125              1068.1313
 Red. masses --      1.0640                 2.4876                 3.5569
 Frc consts  --      0.4676                 1.1513                 2.3910
 IR Inten    --      0.0160                 0.5428                15.3716

                      7                      8                      9
                      A                      A                      A
 Frequencies --   1097.5879              1239.2904              1330.4021
 Red. masses --      1.9792                 1.2354                 1.1234
 Frc consts  --      1.4048                 1.1179                 1.1715
 IR Inten    --      7.3842                 0.0058                11.6759

                     10                     11                     12
                      A                      A                      A
 Frequencies --   1390.5809              1409.7397              1484.6120
 Red. masses --      1.2684                 1.2788                 1.0394
 Frc consts  --      1.4452                 1.4974                 1.3498
 IR Inten    --     27.5116                16.7757                 6.5651

                     13                     14                     15
                      A                      A                      A
 Frequencies --   1493.9921              2881.6293              2888.1967
 Red. masses --      1.0461                 1.0697                 1.0712
 Frc consts  --      1.3757                 5.2336                 5.2647
 IR Inten    --      6.5081                15.2991                14.0322

                     16                     17                     18
                      A                      A                      A
 Frequencies --   3035.7353              3100.8968              3111.5226
 Red. masses --      1.0353                 1.1008                 1.1033
 Frc consts  --      5.6217                 6.2365                 6.2933
 IR Inten    --     13.1733                20.5677                17.9072

 - Thermochemistry -
 -------------------
 Temperature   298.150 Kelvin.  Pressure   1.00000 Atm.
 Atom     1 has atomic number  6 and mass  12.00000

 Molecular mass:    45.03404 amu.
 Principal axes and moments of inertia in atomic units:
                           1         2         3
     Eigenvalues --    45.02000 188.88178 211.95827
           X            0.99918   0.04037   0.00008
           Y           -0.04037   0.99918   0.00005
           Z           -0.00008  -0.00006   1.00000
 This molecule is an asymmetric top.
 Rotational symmetry number  1.
 Rotational temperatures (Kelvin)      1.92390     0.45856     0.40864
 Rotational constants (GHZ):          40.08754     9.55487     8.51461
 Zero-point vibrational energy     167759.4 (Joules/Mol)
                                   40.09546 (Kcal/Mol)
 Warning -- explicit consideration of   3 degrees of freedom as
           vibrations may cause significant error
 Vibrational temperatures:    105.00   367.68   627.80  1242.65  1275.21
          (Kelvin)           1536.80  1579.18  1783.06  1914.15  2000.74
                             2028.30  2136.03  2149.52  4146.02  4155.47
                             4367.75  4461.50  4476.79

 Zero-point correction=                           0.063896 (Hartree/Particle)
 Thermal correction to Energy=                    0.068492
 Thermal correction to Enthalpy=                  0.069437
 Thermal correction to Gibbs Free Energy=         0.037129
 Sum of electronic and zero-point Energies=           -154.375790
 Sum of electronic and thermal Energies=              -154.371194
 Sum of electronic and thermal Enthalpies=            -154.370250
 Sum of electronic and thermal Free Energies=         -154.402558

                     E (Thermal)             CV                S
                      KCal/Mol        Cal/Mol-Kelvin    Cal/Mol-Kelvin
 Total                   42.980             13.416             67.997
 Electronic               0.000              0.000              1.377
 Translational            0.889              2.981             37.340
 Rotational               0.889              2.981             22.115
 Vibrational             41.202              7.455              7.164
 Vibration     1          0.599              1.967              4.071
 Vibration     2          0.666              1.753              1.692
 Vibration     3          0.797              1.391              0.838

                           ! Non-Optimized Parameters !
 Normal termination of Gaussian 16 at Fri Jun 17 14:16:10 2022.
