 Gaussian 16, Revision B.01,
 Gaussian 16:  ES64L-G16RevB.01 20-Dec-2017

 --------------------
 # b3lyp/gen opt freq
 --------------------

 -----------------------------
 propanoic acid, B3LYP/pcseg-2
 -----------------------------
 Symbolic Z-matrix:
 Charge =  0 Multiplicity = 1

 SCF Done:  E(RB3LYP) =  -268.520067128     A.U. after   13 cycles
 SCF Done:  E(RB3LYP) =  -268.520088897     A.U. after    8 cycles
 Optimization completed.
    -- Stationary point found.
 Normal termination of Gaussian 16 at Sat Jun 18 12:20:05 2022.

 ------------------------------------------------------------------
 #N Geom=AllCheck Guess=TCheck SCRF=Check GenChk RB3LYP/ChkBas Freq
 ------------------------------------------------------------------

 Structure from the checkpoint file:  "/wrk/irikura/Gau-929.chk"
 -----------------------------
 propanoic acid, B3LYP/pcseg-2
 -----------------------------
 Charge =  0 Multiplicity = 1

                         Standard orientation:
 ---------------------------------------------------------------------
 Center     Atomic      Atomic             Coordinates (Angstroms)
 Number     Number       Type             X           Y           Z
 ---------------------------------------------------------------------
      1          6           0       -0.000000    0.572404    0.000000
      2          6           0       -0.589303   -0.816153    0.000000
      3          6           0        0.459883   -1.919597    0.000000
      4          8           0       -0.968652    1.522790    0.000000
      5          8           0        1.170513    0.849724    0.000000
      6          1           0       -1.247705   -0.889201    0.868946
      7          1           0       -1.247705   -0.889201   -0.868946
      8          1           0       -0.021524   -2.897107    0.000000
      9          1           0        1.100502   -1.852905   -0.877945
     10          1           0        1.100502   -1.852905    0.877945
     11          1           0       -0.522434    2.381273    0.000000
 ---------------------------------------------------------------------

 SCF Done:  E(RB3LYP) =  -268.520088897     A.U. after    1 cycles

 The electronic state is 1-A'.
 Alpha  occ. eigenvalues --  -19.17641 -19.12005 -10.31215 -10.19452 -10.17024
 Alpha  occ. eigenvalues --   -1.11622  -1.02747  -0.79661  -0.68357  -0.59445
 Alpha  occ. eigenvalues --   -0.50879  -0.49133  -0.49064  -0.42819  -0.42112
 Alpha  occ. eigenvalues --   -0.39122  -0.37726  -0.36197  -0.33599  -0.29084
 Alpha virt. eigenvalues --   -0.00554   0.00670   0.02173   0.05332   0.06112
 Alpha virt. eigenvalues --    0.07317   0.10346   0.14074   0.14589   0.15891
 Alpha virt. eigenvalues --    0.17155   0.17689   0.18851   0.20365   0.22920

 Mulliken charges:
               1
     1  C    0.455445
     2  C   -0.015437
     3  C   -0.045538
     4  O   -0.356396
     5  O   -0.427350
     6  H    0.041438
     7  H    0.041438
     8  H    0.030318
     9  H    0.032846
    10  H    0.032846
    11  H    0.210389
 Sum of Mulliken charges =   0.00000

 Dipole moment (field-independent basis, Debye):
    X=             -1.5815    Y=             -0.4833    Z=              0.0000  Tot=              1.6537
 Quadrupole moment (field-independent basis, Debye-Ang):
   XX=            -35.4752   YY=            -25.8517   ZZ=            -29.7828
   XY=             -0.6666   XZ=             -0.0000   YZ=              0.0000

  Exact polarizability:  46.649  -1.203  50.616  -0.000  -0.000  34.632
 Approx polarizability:  70.764   0.659  60.537   0.000  -0.000  49.804

                      1                      2                      3
                     A"                     A"                     A'
 Frequencies --     49.4672               206.5686               250.5290
 Red. masses --      2.1622                 1.1133                 3.6443
 Frc consts  --      0.0031                 0.0280                 0.1348
 IR Inten    --      0.0000                 0.0084                 2.7678

                      4                      5                      6
                     A'                     A"                     A'
 Frequencies --    466.8780               519.6253               613.6315
 Red. masses --      4.4622                 1.4860                 4.0880
 Frc consts  --      0.5731                 0.2364                 0.9069
 IR Inten    --     19.5796                24.6744                17.0846

                      7                      8                      9
                     A"                     A'                     A"
 Frequencies --    651.9050               813.4169               815.8526
 Red. masses --      1.3558                 2.9353                 1.4417
 Frc consts  --      0.3395                 1.1443                 0.5654
 IR Inten    --     87.0885                 9.8954                16.2585

                     10                     11                     12
                     A'                     A'                     A"
 Frequencies --   1012.2091              1080.6670              1112.8435
 Red. masses --      1.7563                 2.3940                 1.7246
 Frc consts  --      1.0602                 1.6473                 1.2584
 IR Inten    --      0.7681                97.7685                 0.4778

                     13                     14                     15
                     A'                     A"                     A'
 Frequencies --   1159.6071              1286.6928              1304.3229
 Red. masses --      2.5548                 1.1743                 1.5258
 Frc consts  --      2.0241                 1.1455                 1.5294
 IR Inten    --    231.7873                 0.0928                 4.0289

                     16                     17                     18
                     A'                     A'                     A'
 Frequencies --   1401.9531              1423.9299              1460.8255
 Red. masses --      2.0574                 1.2347                 1.0780
 Frc consts  --      2.3825                 1.4750                 1.3554
 IR Inten    --     44.5899                 4.0451                16.2828

                     19                     20                     21
                     A"                     A'                     A'
 Frequencies --   1494.9131              1503.0233              1809.8181
 Red. masses --      1.0364                 1.0566                 9.4506
 Frc consts  --      1.3647                 1.4063                18.2380
 IR Inten    --      7.3542                10.0193               298.2032

                     22                     23                     24
                     A'                     A'                     A"
 Frequencies --   3040.6425              3049.3170              3066.1084
 Red. masses --      1.0611                 1.0353                 1.1000
 Frc consts  --      5.7800                 5.6717                 6.0931
 IR Inten    --     10.8157                19.3866                 2.7530

                     25                     26                     27
                     A'                     A"                     A'
 Frequencies --   3113.3852              3119.5945              3748.8164
 Red. masses --      1.1019                 1.1026                 1.0642
 Frc consts  --      6.2932                 6.3219                 8.8119
 IR Inten    --     19.5665                20.1305                60.9708

 - Thermochemistry -
 -------------------
 Temperature   298.150 Kelvin.  Pressure   1.00000 Atm.
 Atom     1 has atomic number  6 and mass  12.00000

 Molecular mass:    74.03678 amu.
 Principal axes and moments of inertia in atomic units:
                           1         2         3
     Eigenvalues --   176.81348 475.32602 630.17324
           X           -0.19057   0.98167   0.00000
           Y            0.98167   0.19057   0.00000
           Z           -0.00000   0.00000   1.00000
 This molecule is an asymmetric top.
 Rotational symmetry number  1.
 Rotational temperatures (Kelvin)      0.48986     0.18222     0.13744
 Rotational constants (GHZ):          10.20703     3.79685     2.86388
 Zero-point vibrational energy     236720.3 (Joules/Mol)
                                   56.57751 (Kcal/Mol)
 Warning -- explicit consideration of   6 degrees of freedom as
           vibrations may cause significant error
 Vibrational temperatures:     71.17   297.21   360.46   671.73   747.62
          (Kelvin)            882.88   937.95  1170.33  1173.83  1456.34
                             1554.84  1601.13  1668.42  1851.26  1876.63
                             2017.10  2048.72  2101.80  2150.85  2162.52
                             2603.92  4374.81  4387.29  4411.45  4479.47
                             4488.40  5393.71

 Zero-point correction=                           0.090162 (Hartree/Particle)
 Thermal correction to Energy=                    0.095921
 Thermal correction to Enthalpy=                  0.096865
 Thermal correction to Gibbs Free Energy=         0.060815
 Sum of electronic and zero-point Energies=           -268.429927
 Sum of electronic and thermal Energies=              -268.424168
 Sum of electronic and thermal Enthalpies=            -268.423224
 Sum of electronic and thermal Free Energies=         -268.459274

                     E (Thermal)             CV                S
                      KCal/Mol        Cal/Mol-Kelvin    Cal/Mol-Kelvin
 Total                   60.191             19.170             75.874
 Electronic               0.000              0.000              0.000
 Translational            0.889              2.981             38.822
 Rotational               0.889              2.981             25.474
 Vibrational             58.414             13.209             11.578
 Vibration     1          0.595              1.978              4.839
 Vibration     2          0.641              1.831              2.074
 Vibration     3          0.663              1.762              1.727
 Vibration     4          0.824              1.324              0.746
 Vibration     5          0.875              1.207              0.611
 Vibration     6          0.973              1.003              0.427

                           ! Non-Optimized Parameters !
 Normal termination of Gaussian 16 at Sat Jun 18 12:21:42 2022.
