 Gaussian 16, Revision B.01,
 Gaussian 16:  ES64L-G16RevB.01 20-Dec-2017

 --------------------
 # b3lyp/gen opt freq
 --------------------

 ---------------------------
 fluoroethane, B3LYP/pcseg-2
 ---------------------------
 Symbolic Z-matrix:
 Charge =  0 Multiplicity = 1

 SCF Done:  E(RB3LYP) =  -179.143923859     A.U. after   11 cycles
 SCF Done:  E(RB3LYP) =  -179.144201201     A.U. after    8 cycles
 SCF Done:  E(RB3LYP) =  -179.144258330     A.U. after    7 cycles
 SCF Done:  E(RB3LYP) =  -179.144259916     A.U. after    6 cycles
 Optimization completed.
    -- Stationary point found.
 Normal termination of Gaussian 16 at Wed Jun 15 15:46:14 2022.

 ------------------------------------------------------------------
 #N Geom=AllCheck Guess=TCheck SCRF=Check GenChk RB3LYP/ChkBas Freq
 ------------------------------------------------------------------

 Structure from the checkpoint file:  "/wrk/irikura/Gau-15281.chk"
 ---------------------------
 fluoroethane, B3LYP/pcseg-2
 ---------------------------
 Charge =  0 Multiplicity = 1

                         Standard orientation:
 ---------------------------------------------------------------------
 Center     Atomic      Atomic             Coordinates (Angstroms)
 Number     Number       Type             X           Y           Z
 ---------------------------------------------------------------------
      1          6           0        0.000000    0.557149    0.000000
      2          6           0        1.130960   -0.443016    0.000000
      3          9           0       -1.231867   -0.110527    0.000000
      4          1           0        0.019061    1.191035    0.887891
      5          1           0        0.019061    1.191035   -0.887891
      6          1           0        2.088028    0.081673    0.000000
      7          1           0        1.087443   -1.076896    0.885149
      8          1           0        1.087443   -1.076896   -0.885149
 ---------------------------------------------------------------------

 SCF Done:  E(RB3LYP) =  -179.144259916     A.U. after    1 cycles

 The electronic state is 1-A'.
 Alpha  occ. eigenvalues --  -24.65428 -10.24884 -10.17374  -1.18414  -0.76998
 Alpha  occ. eigenvalues --   -0.63516  -0.50025  -0.49929  -0.45553  -0.40279
 Alpha  occ. eigenvalues --   -0.40041  -0.34618  -0.33911
 Alpha virt. eigenvalues --    0.01474   0.04473   0.05633   0.06914   0.08066
 Alpha virt. eigenvalues --    0.09667   0.14619   0.15307   0.17684   0.21726
 Alpha virt. eigenvalues --    0.23496   0.27092   0.31800   0.31805   0.34493

 Mulliken charges:
               1
     1  C    0.264789
     2  C   -0.050250
     3  F   -0.329696
     4  H    0.017013
     5  H    0.017013
     6  H    0.016894
     7  H    0.032119
     8  H    0.032119
 Sum of Mulliken charges =  -0.00000

 Dipole moment (field-independent basis, Debye):
    X=              1.8699    Y=              0.7683    Z=              0.0000  Tot=              2.0216
 Quadrupole moment (field-independent basis, Debye-Ang):
   XX=            -21.1069   YY=            -18.3577   ZZ=            -18.3596
   XY=             -0.3465   XZ=              0.0000   YZ=             -0.0000

  Exact polarizability:  28.825  -0.831  27.718  -0.000  -0.000  26.005
 Approx polarizability:  36.262   1.079  35.182   0.000   0.000  34.421

                      1                      2                      3
                     A"                     A'                     A"
 Frequencies --    249.2948               411.3580               814.3931
 Red. masses --      1.1294                 2.9217                 1.0816
 Frc consts  --      0.0414                 0.2913                 0.4227
 IR Inten    --      0.5103                 6.1759                 0.6742

                      4                      5                      6
                     A'                     A'                     A'
 Frequencies --    882.3358              1051.4225              1121.1981
 Red. masses --      2.2954                 4.1430                 2.1005
 Frc consts  --      1.0529                 2.6985                 1.5557
 IR Inten    --     22.2118                89.8593                21.9016

                      7                      8                      9
                     A"                     A"                     A'
 Frequencies --   1186.3533              1299.0868              1402.2887
 Red. masses --      1.5304                 1.1023                 1.2108
 Frc consts  --      1.2690                 1.0960                 1.4029
 IR Inten    --      4.6543                 0.1244                 1.4072

                     10                     11                     12
                     A'                     A"                     A'
 Frequencies --   1421.3048              1480.0663              1498.0210
 Red. masses --      1.2960                 1.0385                 1.0562
 Frc consts  --      1.5425                 1.3403                 1.3965
 IR Inten    --     24.6048                 5.6705                 1.7193

                     13                     14                     15
                     A'                     A'                     A'
 Frequencies --   1519.6288              3038.3830              3040.9733
 Red. masses --      1.0886                 1.0405                 1.0509
 Frc consts  --      1.4811                 5.6597                 5.7259
 IR Inten    --      1.3044                25.5740                22.1039

                     16                     17                     18
                     A"                     A'                     A"
 Frequencies --   3078.8451              3103.8850              3119.2914
 Red. masses --      1.1090                 1.0997                 1.1051
 Frc consts  --      6.1937                 6.2420                 6.3355
 IR Inten    --     16.3452                25.2989                36.2787

 - Thermochemistry -
 -------------------
 Temperature   298.150 Kelvin.  Pressure   1.00000 Atm.
 Atom     1 has atomic number  6 and mass  12.00000

 Molecular mass:    48.03753 amu.
 Principal axes and moments of inertia in atomic units:
                           1         2         3
     Eigenvalues --    49.58134 193.88244 220.83552
           X            0.99010   0.14038   0.00000
           Y           -0.14038   0.99010   0.00000
           Z           -0.00000   0.00000   1.00000
 This molecule is an asymmetric top.
 Rotational symmetry number  1.
 Rotational temperatures (Kelvin)      1.74691     0.44673     0.39221
 Rotational constants (GHZ):          36.39961     9.30843     8.17233
 Zero-point vibrational energy     177753.9 (Joules/Mol)
                                   42.48420 (Kcal/Mol)
 Warning -- explicit consideration of   2 degrees of freedom as
           vibrations may cause significant error
 Vibrational temperatures:    358.68   591.85  1171.73  1269.48  1512.76
          (Kelvin)           1613.15  1706.90  1869.10  2017.58  2044.94
                             2129.49  2155.32  2186.41  4371.56  4375.28
                             4429.77  4465.80  4487.96

 Zero-point correction=                           0.067703 (Hartree/Particle)
 Thermal correction to Energy=                    0.071564
 Thermal correction to Enthalpy=                  0.072509
 Thermal correction to Gibbs Free Energy=         0.042534
 Sum of electronic and zero-point Energies=           -179.076557
 Sum of electronic and thermal Energies=              -179.072695
 Sum of electronic and thermal Enthalpies=            -179.071751
 Sum of electronic and thermal Free Energies=         -179.101726

                     E (Thermal)             CV                S
                      KCal/Mol        Cal/Mol-Kelvin    Cal/Mol-Kelvin
 Total                   44.907             11.702             63.088
 Electronic               0.000              0.000              0.000
 Translational            0.889              2.981             37.533
 Rotational               0.889              2.981             22.278
 Vibrational             43.130              5.740              3.277
 Vibration     1          0.662              1.764              1.736
 Vibration     2          0.775              1.446              0.922

 Optimization completed.
    -- Stationary point found.
 Normal termination of Gaussian 16 at Wed Jun 15 15:47:01 2022.
