 Gaussian 16, Revision B.01,
 Gaussian 16:  ES64L-G16RevB.01 20-Dec-2017

 --------------------
 # b3lyp/gen opt freq
 --------------------

 -----------------------
 propanal, B3LYP/pcseg-2
 -----------------------
 Symbolic Z-matrix:
 Charge =  0 Multiplicity = 1

 SCF Done:  E(RB3LYP) =  -193.229234710     A.U. after   13 cycles
 SCF Done:  E(RB3LYP) =  -193.229347143     A.U. after   10 cycles
 SCF Done:  E(RB3LYP) =  -193.229349407     A.U. after    7 cycles
 SCF Done:  E(RB3LYP) =  -193.229349601     A.U. after    6 cycles
 Optimization completed.
    -- Stationary point found.
 Normal termination of Gaussian 16 at Wed Jun 15 17:38:44 2022.

 ------------------------------------------------------------------
 #N Geom=AllCheck Guess=TCheck SCRF=Check GenChk RB3LYP/ChkBas Freq
 ------------------------------------------------------------------

 Structure from the checkpoint file:  "/wrk/irikura/Gau-6184.chk"
 -----------------------
 propanal, B3LYP/pcseg-2
 -----------------------
 Charge =  0 Multiplicity = 1

                         Standard orientation:
 ---------------------------------------------------------------------
 Center     Atomic      Atomic             Coordinates (Angstroms)
 Number     Number       Type             X           Y           Z
 ---------------------------------------------------------------------
      1          6           0        1.458806    0.471267    0.000000
      2          6           0        0.000000    0.905386    0.000000
      3          6           0       -0.996340   -0.223646    0.000000
      4          8           0       -0.716628   -1.394430    0.000000
      5          1           0        2.117820    1.338877    0.000000
      6          1           0        1.686690   -0.132781    0.877158
      7          1           0        1.686690   -0.132781   -0.877158
      8          1           0       -0.236850    1.533316    0.867216
      9          1           0       -0.236850    1.533316   -0.867216
     10          1           0       -2.059277    0.097447    0.000000
 ---------------------------------------------------------------------

 SCF Done:  E(RB3LYP) =  -193.229349601     A.U. after    1 cycles

 The electronic state is 1-A'.
 Alpha  occ. eigenvalues --  -19.12791 -10.26632 -10.19148 -10.16999  -1.05781
 Alpha  occ. eigenvalues --   -0.79291  -0.67587  -0.56438  -0.49706  -0.47497
 Alpha  occ. eigenvalues --   -0.44826  -0.39392  -0.39274  -0.37767  -0.35858
 Alpha  occ. eigenvalues --   -0.26604
 Alpha virt. eigenvalues --   -0.03462   0.00926   0.03314   0.05070   0.06021
 Alpha virt. eigenvalues --    0.07370   0.09755   0.12585   0.14696   0.15755
 Alpha virt. eigenvalues --    0.17599   0.17835   0.20970   0.24149   0.24510

 Mulliken charges:
               1
     1  C   -0.064691
     2  C    0.037049
     3  C    0.243924
     4  O   -0.370943
     5  H    0.029497
     6  H    0.032681
     7  H    0.032681
     8  H    0.030648
     9  H    0.030648
    10  H   -0.001494
 Sum of Mulliken charges =   0.00000

 Dipole moment (field-independent basis, Debye):
    X=             -0.0013    Y=              2.7952    Z=              0.0000  Tot=              2.7952
 Quadrupole moment (field-independent basis, Debye-Ang):
   XX=            -24.4777   YY=            -29.0932   ZZ=            -24.5159
   XY=             -1.6774   XZ=             -0.0000   YZ=             -0.0000

  Exact polarizability:  44.399  -0.037  44.826  -0.000   0.000  32.419
 Approx polarizability:  53.571  -3.346  67.222   0.000  -0.000  46.421

                      1                      2                      3
                     A"                     A"                     A'
 Frequencies --    137.1941               225.9544               253.0301
 Red. masses --      1.4239                 1.2538                 3.7354
 Frc consts  --      0.0158                 0.0377                 0.1409
 IR Inten    --      2.6535                 0.5698                 8.4602

                      4                      5                      6
                     A"                     A'                     A'
 Frequencies --    668.1636               671.9780               846.8254
 Red. masses --      1.1690                 3.3081                 3.2501
 Frc consts  --      0.3075                 0.8801                 1.3732
 IR Inten    --      3.1509                 5.8892                24.2320

                      7                      8                      9
                     A"                     A'                     A'
 Frequencies --    905.1447              1004.2986              1110.5776
 Red. masses --      1.1596                 1.4763                 2.2725
 Frc consts  --      0.5598                 0.8773                 1.6514
 IR Inten    --      1.7800                 1.1741                14.3645

                     10                     11                     12
                     A"                     A"                     A'
 Frequencies --   1147.7795              1281.9095              1364.4206
 Red. masses --      1.8132                 1.1880                 1.7430
 Frc consts  --      1.4074                 1.1502                 1.9118
 IR Inten    --      0.3282                 0.2834                11.1528

                     13                     14                     15
                     A'                     A'                     A'
 Frequencies --   1411.9894              1425.3322              1448.9351
 Red. masses --      1.1780                 1.1918                 1.1205
 Frc consts  --      1.3838                 1.4265                 1.3859
 IR Inten    --      0.9393                16.2111                15.7847

                     16                     17                     18
                     A"                     A'                     A'
 Frequencies --   1493.8756              1500.7174              1803.1599
 Red. masses --      1.0368                 1.0510                 9.6541
 Frc consts  --      1.3633                 1.3945                18.4940
 IR Inten    --      7.4746                 8.2970               174.4475

                     19                     20                     21
                     A'                     A'                     A"
 Frequencies --   2866.8282              3004.6473              3023.3981
 Red. masses --      1.0821                 1.0616                 1.0980
 Frc consts  --      5.2397                 5.6466                 5.9135
 IR Inten    --    135.5898                26.1195                 8.4672

                     22                     23                     24
                     A'                     A'                     A"
 Frequencies --   3048.2196              3112.4001              3115.2134
 Red. masses --      1.0351                 1.1024                 1.1021
 Frc consts  --      5.6666                 6.2919                 6.3015
 IR Inten    --     17.7751                18.8121                19.6024

 - Thermochemistry -
 -------------------
 Temperature   298.150 Kelvin.  Pressure   1.00000 Atm.
 Atom     1 has atomic number  6 and mass  12.00000

 Molecular mass:    58.04186 amu.
 Principal axes and moments of inertia in atomic units:
                           1         2         3
     Eigenvalues --   106.45888 310.57403 395.12978
           X            0.76457  -0.64454   0.00000
           Y            0.64454   0.76457   0.00000
           Z           -0.00000   0.00000   1.00000
 This molecule is an asymmetric top.
 Rotational symmetry number  1.
 Rotational temperatures (Kelvin)      0.81359     0.27888     0.21920
 Rotational constants (GHZ):          16.95247     5.81099     4.56746
 Zero-point vibrational energy     220543.5 (Joules/Mol)
                                   52.71116 (Kcal/Mol)
 Warning -- explicit consideration of   3 degrees of freedom as
           vibrations may cause significant error
 Vibrational temperatures:    197.39   325.10   364.05   961.34   966.83
          (Kelvin)           1218.39  1302.30  1444.96  1597.87  1651.40
                             1844.38  1963.10  2031.54  2050.74  2084.69
                             2149.35  2159.20  2594.34  4124.73  4323.02
                             4350.00  4385.71  4478.05  4482.10

 Zero-point correction=                           0.084001 (Hartree/Particle)
 Thermal correction to Energy=                    0.089004
 Thermal correction to Enthalpy=                  0.089949
 Thermal correction to Gibbs Free Energy=         0.056705
 Sum of electronic and zero-point Energies=           -193.145349
 Sum of electronic and thermal Energies=              -193.140345
 Sum of electronic and thermal Enthalpies=            -193.139401
 Sum of electronic and thermal Free Energies=         -193.172645

                     E (Thermal)             CV                S
                      KCal/Mol        Cal/Mol-Kelvin    Cal/Mol-Kelvin
 Total                   55.851             15.909             69.967
 Electronic               0.000              0.000              0.000
 Translational            0.889              2.981             38.096
 Rotational               0.889              2.981             24.083
 Vibrational             54.074              9.948              7.787
 Vibration     1          0.614              1.916              2.843
 Vibration     2          0.650              1.801              1.911
 Vibration     3          0.664              1.758              1.709

 Optimization completed.
    -- Stationary point found.
 Normal termination of Gaussian 16 at Wed Jun 15 17:39:56 2022.
