 Gaussian 16, Revision B.01,

 ---------------------------------------
 # b3lyp/gen opt freq CPHF(Grid=OneStep)
 ---------------------------------------

 -------------------------
 ethylamine, B3LYP/pcseg-2
 -------------------------
 Symbolic Z-matrix:
 Charge =  0 Multiplicity = 1

 SCF Done:  E(RB3LYP) =  -135.237266256     A.U. after   12 cycles
 Optimization completed.
    -- Stationary point found.
 Normal termination of Gaussian 16 at Sat Sep 30 06:49:47 2023.

 ------------------------------------------------------------------
 #N Geom=AllCheck Guess=TCheck SCRF=Check GenChk RB3LYP/ChkBas Freq
 ------------------------------------------------------------------

 Structure from the checkpoint file:  "c2h5nh2.chk"
 -------------------------
 ethylamine, B3LYP/pcseg-2
 -------------------------
 Charge =  0 Multiplicity = 1

 SCF Done:  E(RB3LYP) =  -135.237266256     A.U. after    1 cycles

  Exact polarizability:  40.185   0.059  35.628   0.000  -0.000  33.822
 Approx polarizability:  48.382   1.289  47.287   0.000  -0.000  47.593

                      1                      2                      3
                     A"                     A"                     A'
 Frequencies --    248.5135               275.7891               400.7454
 Red. masses --      1.0161                 1.1654                 2.1095
 Frc consts  --      0.0370                 0.0522                 0.1996
 IR Inten    --     18.1804                27.4321                 7.3680

                      4                      5                      6
                     A"                     A'                     A'
 Frequencies --    778.6389               828.1710               888.1064
 Red. masses --      1.0928                 1.6717                 1.6323
 Frc consts  --      0.3904                 0.6755                 0.7585
 IR Inten    --      0.8614               162.0006                20.9004

                      7                      8                      9
                     A"                     A'                     A'
 Frequencies --   1005.0635              1056.8282              1141.6429
 Red. masses --      1.1099                 3.3054                 2.1331
 Frc consts  --      0.6605                 2.1751                 1.6380
 IR Inten    --      0.7894                28.2839                 9.4389

                     10                     11                     12
                     A"                     A'                     A"
 Frequencies --   1270.1552              1382.4470              1386.5523
 Red. masses --      1.4230                 1.2737                 1.1512
 Frc consts  --      1.3526                 1.4343                 1.3040
 IR Inten    --      0.0787                13.9285                 0.0733

                     13                     14                     15
                     A'                     A'                     A"
 Frequencies --   1406.3857              1485.5072              1492.0581
 Red. masses --      1.2441                 1.0454                 1.0449
 Frc consts  --      1.4498                 1.3592                 1.3705
 IR Inten    --      6.9459                 0.2949                 7.9516

                     16                     17                     18
                     A'                     A'                     A'
 Frequencies --   1504.7054              1659.6872              3016.0864
 Red. masses --      1.0835                 1.0872                 1.0345
 Frc consts  --      1.4454                 1.7645                 5.5447
 IR Inten    --      2.7212                24.2575                24.3041

                     19                     20                     21
                     A'                     A"                     A'
 Frequencies --   3028.4136              3053.2225              3079.6918
 Red. masses --      1.0601                 1.1035                 1.1003
 Frc consts  --      5.7283                 6.0611                 6.1487
 IR Inten    --     31.8347                 4.5863                48.4231

                     22                     23                     24
                     A"                     A'                     A"
 Frequencies --   3087.0760              3489.9501              3568.0564
 Red. masses --      1.1042                 1.0484                 1.0935
 Frc consts  --      6.2001                 7.5232                 8.2021
 IR Inten    --     58.7023                 1.1858                 0.4809

 - Thermochemistry -
 -------------------
 Temperature   298.150 Kelvin.  Pressure   1.00000 Atm.
 Atom     1 has atomic number  7 and mass  14.00307

 Molecular mass:    45.05785 amu.
 Principal axes and moments of inertia in atomic units:
                           1         2         3
     Eigenvalues --    56.05409 207.17916 231.52954
           X            0.99659   0.08247   0.00000
           Y           -0.08247   0.99659   0.00000
           Z           -0.00000   0.00000   1.00000
 This molecule is an asymmetric top.
 Rotational symmetry number  1.
 Rotational temperatures (Kelvin)      1.54518     0.41806     0.37409
 Rotational constants (GHZ):          32.19642     8.71102     7.79486
 Zero-point vibrational energy     242444.1 (Joules/Mol)
                                   57.94554 (Kcal/Mol)
 Warning -- explicit consideration of   3 degrees of freedom as
           vibrations may cause significant error
 Vibrational temperatures:    357.56   396.80   576.58  1120.29  1191.55
          (Kelvin)           1277.79  1446.06  1520.54  1642.57  1827.47
                             1989.03  1994.94  2023.48  2137.31  2146.74
                             2164.94  2387.92  4339.48  4357.21  4392.91
                             4430.99  4441.61  5021.26  5133.64

 Zero-point correction=                           0.092342 (Hartree/Particle)
 Thermal correction to Energy=                    0.096775
 Thermal correction to Enthalpy=                  0.097719
 Thermal correction to Gibbs Free Energy=         0.066826
 Sum of electronic and zero-point Energies=           -135.144924
 Sum of electronic and thermal Energies=              -135.140491
 Sum of electronic and thermal Enthalpies=            -135.139547
 Sum of electronic and thermal Free Energies=         -135.170440

                     E (Thermal)             CV                S
                      KCal/Mol        Cal/Mol-Kelvin    Cal/Mol-Kelvin
 Total                   60.727             14.422             65.020
 Electronic               0.000              0.000              0.000
 Translational            0.889              2.981             37.342
 Rotational               0.889              2.981             22.513
 Vibrational             58.950              8.460              5.166
 Vibration     1          0.662              1.765              1.741
 Vibration     2          0.677              1.718              1.560
 Vibration     3          0.767              1.469              0.960

 Optimization completed.
    -- Stationary point found.
 Normal termination of Gaussian 16 at Sat Sep 30 06:53:02 2023.
 Gaussian 16:  ES64L-G16RevB.01 20-Dec-2017

 ---------------------------------
 # rohf/gen geom=check guess=check
 ---------------------------------

 ----------------------------
 ethylamine, ROHF/cc-pVTZ-F12
 ----------------------------
 Structure from the checkpoint file:  "c2h5nh2.chk"
 Charge =  0 Multiplicity = 1

                         Standard orientation:
 ---------------------------------------------------------------------
 Center     Atomic      Atomic             Coordinates (Angstroms)
 Number     Number       Type             X           Y           Z
 ---------------------------------------------------------------------
      1          7           0       -1.306366   -0.088356    0.000000
      2          6           0        0.000000    0.571429    0.000000
      3          6           0        1.217543   -0.354028    0.000000
      4          1           0        2.148887    0.217015    0.000000
      5          1           0        1.219796   -0.997483    0.882358
      6          1           0        1.219796   -0.997483   -0.882358
      7          1           0        0.037861    1.227234   -0.872439
      8          1           0        0.037861    1.227234    0.872439
      9          1           0       -1.412448   -0.681214    0.813970
     10          1           0       -1.412448   -0.681214   -0.813970
 ---------------------------------------------------------------------

 SCF Done:  E(ROHF) =  -134.313412851     A.U. after   11 cycles

 The electronic state is 1-A'.
 Alpha  occ. eigenvalues --  -15.53485 -11.24550 -11.21226  -1.17427  -0.98697
 Alpha  occ. eigenvalues --   -0.83065  -0.67198  -0.59826  -0.57061  -0.56432
 Alpha  occ. eigenvalues --   -0.50674  -0.48302  -0.38697
 Alpha virt. eigenvalues --    0.04966   0.06167   0.06327   0.06940   0.09506
 Alpha virt. eigenvalues --    0.09756   0.10548   0.12374   0.13058   0.16146
 Alpha virt. eigenvalues --    0.17292   0.22507   0.22698   0.23395   0.24215

 Mulliken charges and spin densities:
               1          2
     1  N   -0.678501   0.000000
     2  C    0.046553   0.000000
     3  C   -0.247337   0.000000
     4  H    0.077759   0.000000
     5  H    0.077730   0.000000
     6  H    0.077730   0.000000
     7  H    0.092341   0.000000
     8  H    0.092341   0.000000
     9  H    0.230693   0.000000
    10  H    0.230693   0.000000
 Sum of Mulliken charges =  -0.00000   0.00000

 Dipole moment (field-independent basis, Debye):
    X=              1.0095    Y=             -0.9173    Z=             -0.0000  Tot=              1.3640
 Quadrupole moment (field-independent basis, Debye-Ang):
   XX=            -24.2706   YY=            -20.5491   ZZ=            -19.1789
   XY=              2.6477   XZ=              0.0000   YZ=             -0.0000

 Normal termination of Gaussian 16 at Sat Sep 30 06:53:50 2023.
