 Gaussian 16, Revision B.01,
 Gaussian 16:  ES64L-G16RevB.01 20-Dec-2017

 --------------------
 # b3lyp/gen opt freq
 --------------------

 ---------------------
 Ethane, B3LYP/pcseg-2
 ---------------------
 Symbolic Z-matrix:
 Charge =  0 Multiplicity = 1

 SCF Done:  E(RB3LYP) =  -79.7839906007     A.U. after    9 cycles
 SCF Done:  E(RB3LYP) =  -79.8475239688     A.U. after    8 cycles
 SCF Done:  E(RB3LYP) =  -79.8654853187     A.U. after    9 cycles
 SCF Done:  E(RB3LYP) =  -79.8664842432     A.U. after    8 cycles
 SCF Done:  E(RB3LYP) =  -79.8667110311     A.U. after    6 cycles
 SCF Done:  E(RB3LYP) =  -79.8667501277     A.U. after    6 cycles
 SCF Done:  E(RB3LYP) =  -79.8667515223     A.U. after    5 cycles
 Optimization completed.
    -- Stationary point found.
 Normal termination of Gaussian 16 at Wed Feb  2 17:51:39 2022.

 ------------------------------------------------------------------
 #N Geom=AllCheck Guess=TCheck SCRF=Check GenChk RB3LYP/ChkBas Freq
 ------------------------------------------------------------------

 Structure from the checkpoint file:  "/wrk/irikura/Gau-15367.chk"
 ---------------------
 Ethane, B3LYP/pcseg-2
 ---------------------
 Charge =  0 Multiplicity = 1

                         Standard orientation:
 ---------------------------------------------------------------------
 Center     Atomic      Atomic             Coordinates (Angstroms)
 Number     Number       Type             X           Y           Z
 ---------------------------------------------------------------------
      1          6           0        0.000000    0.000000    0.763490
      2          6           0       -0.000000   -0.000000   -0.763490
      3          1           0        0.000000    1.015934    1.160920
      4          1           0       -0.879825   -0.507967    1.160920
      5          1           0        0.879825   -0.507967    1.160920
      6          1           0       -0.000000   -1.015934   -1.160920
      7          1           0       -0.879825    0.507967   -1.160920
      8          1           0        0.879825    0.507967   -1.160920
 ---------------------------------------------------------------------

 SCF Done:  E(RB3LYP) =  -79.8667515223     A.U. after    1 cycles

 The electronic state is 1-A1G.
 Alpha  occ. eigenvalues --  -10.15892 -10.15868  -0.75425  -0.61772  -0.43720
 Alpha  occ. eigenvalues --   -0.43720  -0.37123  -0.34597  -0.34597
 Alpha virt. eigenvalues --    0.01730   0.04811   0.06823   0.06823   0.09782
 Alpha virt. eigenvalues --    0.09782   0.15992   0.17431   0.17629   0.17629
 Alpha virt. eigenvalues --    0.21681   0.21681   0.33826   0.33826   0.33879

 Mulliken charges:
               1
     1  C   -0.060644
     2  C   -0.060644
     3  H    0.020215
     4  H    0.020215
     5  H    0.020215
     6  H    0.020215
     7  H    0.020215
     8  H    0.020215
 Sum of Mulliken charges =  -0.00000

 Dipole moment (field-independent basis, Debye):
    X=              0.0000    Y=             -0.0000    Z=              0.0000  Tot=              0.0000
 Quadrupole moment (field-independent basis, Debye-Ang):
   XX=            -15.0432   YY=            -15.0432   ZZ=            -15.7600
   XY=             -0.0000   XZ=             -0.0000   YZ=              0.0000

  Exact polarizability:  26.452  -0.000  26.452   0.000  -0.000  29.783
 Approx polarizability:  35.196  -0.000  35.196   0.000  -0.000  35.139

                      1                      2                      3
                     A1U                    EU                     EU
 Frequencies --    304.2554               826.6539               826.6540
 Red. masses --      1.0078                 1.0582                 1.0582
 Frc consts  --      0.0550                 0.4260                 0.4260
 IR Inten    --      0.0000                 3.5307                 3.5307

                      4                      5                      6
                     A1G                    EG                     EG
 Frequencies --    996.0349              1222.2341              1222.2345
 Red. masses --      3.3619                 1.4691                 1.4691
 Frc consts  --      1.9651                 1.2930                 1.2930
 IR Inten    --      0.0000                 0.0000                 0.0000

                      7                      8                      9
                     A2U                    A1G                    EG
 Frequencies --   1412.6793              1422.1138              1501.8512
 Red. masses --      1.1983                 1.2423                 1.0180
 Frc consts  --      1.4090                 1.4803                 1.3529
 IR Inten    --      0.9008                 0.0000                 0.0000

                     10                     11                     12
                     EG                     EU                     EU
 Frequencies --   1501.8512              1505.2013              1505.2017
 Red. masses --      1.0180                 1.0618                 1.0618
 Frc consts  --      1.3529                 1.4174                 1.4174
 IR Inten    --      0.0000                 9.8069                 9.8070

                     13                     14                     15
                     A1G                    A2U                    EG
 Frequencies --   3030.1908              3030.6310              3075.0924
 Red. masses --      1.0359                 1.0341                 1.1011
 Frc consts  --      5.6039                 5.5958                 6.1345
 IR Inten    --      0.0000                61.2629                 0.0000

                     16                     17                     18
                     EG                     EU                     EU
 Frequencies --   3075.0926              3100.1289              3100.1290
 Red. masses --      1.1011                 1.1025                 1.1025
 Frc consts  --      6.1345                 6.2431                 6.2431
 IR Inten    --      0.0000                65.1277                65.1270

 - Thermochemistry -
 -------------------
 Temperature   298.150 Kelvin.  Pressure   1.00000 Atm.
 Atom     1 has atomic number  6 and mass  12.00000

 Molecular mass:    30.04695 amu.
 Principal axes and moments of inertia in atomic units:
                           1         2         3
     Eigenvalues --    22.28770  90.20616  90.20616
           X           -0.00000  -0.60971   0.79262
           Y            0.00000   0.79262   0.60971
           Z            1.00000  -0.00000   0.00000
 This molecule is a prolate symmetric top.
 Rotational symmetry number  6.
 Rotational temperatures (Kelvin)      3.88618     0.96018     0.96018
 Rotational constants (GHZ):          80.97478    20.00685    20.00685
 Zero-point vibrational energy     195339.6 (Joules/Mol)
                                   46.68728 (Kcal/Mol)
 Warning -- explicit consideration of   1 degrees of freedom as
           vibrations may cause significant error
 Vibrational temperatures:    437.76  1189.37  1189.37  1433.07  1758.52
          (Kelvin)           1758.52  2032.53  2046.10  2160.83  2160.83
                             2165.65  2165.65  4359.77  4360.40  4424.37
                             4424.37  4460.39  4460.39

 Zero-point correction=                           0.074401 (Hartree/Particle)
 Thermal correction to Energy=                    0.077892
 Thermal correction to Enthalpy=                  0.078836
 Thermal correction to Gibbs Free Energy=         0.052977
 Sum of electronic and zero-point Energies=            -79.792351
 Sum of electronic and thermal Energies=               -79.788860
 Sum of electronic and thermal Enthalpies=             -79.787916
 Sum of electronic and thermal Free Energies=          -79.813774

                     E (Thermal)             CV                S
                      KCal/Mol        Cal/Mol-Kelvin    Cal/Mol-Kelvin
 Total                   48.878             10.102             54.424
 Electronic               0.000              0.000              0.000
 Translational            0.889              2.981             36.134
 Rotational               0.889              2.981             16.273
 Vibrational             47.100              4.141              2.017
 Vibration     1          0.695              1.666              1.393

 Optimization completed.
    -- Stationary point found.
 Normal termination of Gaussian 16 at Wed Feb  2 17:53:21 2022.
