 Gaussian 16, Revision B.01,

 ---------------------------------------
 # b3lyp/gen opt freq CPHF(Grid=OneStep)
 ---------------------------------------

 ---------------------
 Ethane, B3LYP/pcseg-2
 ---------------------
 Symbolic Z-matrix:
 Charge =  0 Multiplicity = 1

 SCF Done:  E(RB3LYP) =  -79.8667515222     A.U. after    9 cycles
 Optimization completed.
    -- Stationary point found.
 Normal termination of Gaussian 16 at Sat Sep 30 10:04:26 2023.

 ------------------------------------------------------------------
 #N Geom=AllCheck Guess=TCheck SCRF=Check GenChk RB3LYP/ChkBas Freq
 ------------------------------------------------------------------

 Structure from the checkpoint file:  "c2h6.chk"
 ---------------------
 Ethane, B3LYP/pcseg-2
 ---------------------
 Charge =  0 Multiplicity = 1

 SCF Done:  E(RB3LYP) =  -79.8667515222     A.U. after    1 cycles

  Exact polarizability:  26.452  -0.000  26.452   0.000   0.000  29.783
 Approx polarizability:  35.196  -0.000  35.196   0.000  -0.000  35.139

                      1                      2                      3
                     A1U                    EU                     EU
 Frequencies --    304.2531               826.6522               826.6522
 Red. masses --      1.0078                 1.0582                 1.0582
 Frc consts  --      0.0550                 0.4260                 0.4260
 IR Inten    --      0.0000                 3.5309                 3.5309

                      4                      5                      6
                     A1G                    EG                     EG
 Frequencies --    996.0341              1222.2332              1222.2333
 Red. masses --      3.3618                 1.4691                 1.4691
 Frc consts  --      1.9651                 1.2930                 1.2930
 IR Inten    --      0.0000                 0.0000                 0.0000

                      7                      8                      9
                     A2U                    A1G                    EG
 Frequencies --   1412.6786              1422.1126              1501.8503
 Red. masses --      1.1983                 1.2423                 1.0180
 Frc consts  --      1.4090                 1.4803                 1.3529
 IR Inten    --      0.9010                 0.0000                 0.0000

                     10                     11                     12
                     EG                     EU                     EU
 Frequencies --   1501.8503              1505.2020              1505.2021
 Red. masses --      1.0180                 1.0618                 1.0618
 Frc consts  --      1.3529                 1.4174                 1.4174
 IR Inten    --      0.0000                 9.8069                 9.8069

                     13                     14                     15
                     A1G                    A2U                    EG
 Frequencies --   3030.1915              3030.6328              3075.0937
 Red. masses --      1.0359                 1.0341                 1.1011
 Frc consts  --      5.6039                 5.5958                 6.1345
 IR Inten    --      0.0000                61.2626                 0.0000

                     16                     17                     18
                     EG                     EU                     EU
 Frequencies --   3075.0938              3100.1296              3100.1296
 Red. masses --      1.1011                 1.1025                 1.1025
 Frc consts  --      6.1345                 6.2431                 6.2431
 IR Inten    --      0.0000                65.1280                65.1282

 - Thermochemistry -
 -------------------
 Temperature   298.150 Kelvin.  Pressure   1.00000 Atm.
 Atom     1 has atomic number  6 and mass  12.00000

 Molecular mass:    30.04695 amu.
 Principal axes and moments of inertia in atomic units:
                           1         2         3
     Eigenvalues --    22.28769  90.20613  90.20613
           X           -0.00000   0.80640  -0.59136
           Y            0.00000   0.59136   0.80640
           Z            1.00000   0.00000  -0.00000
 This molecule is a prolate symmetric top.
 Rotational symmetry number  6.
 Rotational temperatures (Kelvin)      3.88618     0.96018     0.96018
 Rotational constants (GHZ):          80.97479    20.00686    20.00686
 Zero-point vibrational energy     195339.6 (Joules/Mol)
                                   46.68728 (Kcal/Mol)
 Warning -- explicit consideration of   1 degrees of freedom as
           vibrations may cause significant error
 Vibrational temperatures:    437.75  1189.37  1189.37  1433.07  1758.52
          (Kelvin)           1758.52  2032.53  2046.10  2160.83  2160.83
                             2165.65  2165.65  4359.77  4360.40  4424.37
                             4424.37  4460.39  4460.40

 Zero-point correction=                           0.074401 (Hartree/Particle)
 Thermal correction to Energy=                    0.077892
 Thermal correction to Enthalpy=                  0.078836
 Thermal correction to Gibbs Free Energy=         0.052977
 Sum of electronic and zero-point Energies=            -79.792351
 Sum of electronic and thermal Energies=               -79.788860
 Sum of electronic and thermal Enthalpies=             -79.787916
 Sum of electronic and thermal Free Energies=          -79.813774

                     E (Thermal)             CV                S
                      KCal/Mol        Cal/Mol-Kelvin    Cal/Mol-Kelvin
 Total                   48.878             10.102             54.424
 Electronic               0.000              0.000              0.000
 Translational            0.889              2.981             36.134
 Rotational               0.889              2.981             16.273
 Vibrational             47.100              4.141              2.017
 Vibration     1          0.695              1.666              1.393

 Optimization completed.
    -- Stationary point found.
 Normal termination of Gaussian 16 at Sat Sep 30 10:05:20 2023.
 Gaussian 16:  ES64L-G16RevB.01 20-Dec-2017

 ---------------------------------
 # rohf/gen geom=check guess=check
 ---------------------------------

 ------------------------
 Ethane, ROHF/cc-pVTZ-F12
 ------------------------
 Structure from the checkpoint file:  "c2h6.chk"
 Charge =  0 Multiplicity = 1

                         Standard orientation:
 ---------------------------------------------------------------------
 Center     Atomic      Atomic             Coordinates (Angstroms)
 Number     Number       Type             X           Y           Z
 ---------------------------------------------------------------------
      1          6           0        0.000000    0.000000    0.763490
      2          6           0       -0.000000   -0.000000   -0.763490
      3          1           0        0.000000    1.015934    1.160920
      4          1           0       -0.879825   -0.507967    1.160920
      5          1           0        0.879825   -0.507967    1.160920
      6          1           0       -0.000000   -1.015934   -1.160920
      7          1           0       -0.879825    0.507967   -1.160920
      8          1           0        0.879825    0.507967   -1.160920
 ---------------------------------------------------------------------

 SCF Done:  E(ROHF) =  -79.2645056811     A.U. after    9 cycles

 The electronic state is 1-A1G.
 Alpha  occ. eigenvalues --  -11.21054 -11.20993  -1.01720  -0.84184  -0.59613
 Alpha  occ. eigenvalues --   -0.59613  -0.51040  -0.48665  -0.48665
 Alpha virt. eigenvalues --    0.05278   0.05938   0.07478   0.07478   0.10070
 Alpha virt. eigenvalues --    0.10070   0.10420   0.17300   0.20312   0.20312
 Alpha virt. eigenvalues --    0.23864   0.23864   0.24324   0.27857   0.33727

 Mulliken charges and spin densities:
               1          2
     1  C   -0.227104  -0.000000
     2  C   -0.227104  -0.000000
     3  H    0.075701  -0.000000
     4  H    0.075701  -0.000000
     5  H    0.075701  -0.000000
     6  H    0.075701  -0.000000
     7  H    0.075701  -0.000000
     8  H    0.075701  -0.000000
 Sum of Mulliken charges =  -0.00000  -0.00000

 Dipole moment (field-independent basis, Debye):
    X=             -0.0000    Y=              0.0000    Z=              0.0000  Tot=              0.0000
 Quadrupole moment (field-independent basis, Debye-Ang):
   XX=            -14.9426   YY=            -14.9426   ZZ=            -15.6449
   XY=             -0.0000   XZ=             -0.0000   YZ=              0.0000

 Normal termination of Gaussian 16 at Sat Sep 30 10:05:28 2023.
