 Gaussian 16, Revision B.01,
 Gaussian 16:  ES64L-G16RevB.01 20-Dec-2017

 --------------------
 # b3lyp/gen opt freq
 --------------------

 --------------------------------
 pentachloroethane, B3LYP/pcseg-2
 --------------------------------
 Symbolic Z-matrix:
 Charge =  0 Multiplicity = 1

 SCF Done:  E(RB3LYP) =  -2377.99852765     A.U. after   13 cycles
 SCF Done:  E(RB3LYP) =  -2377.99872846     A.U. after   10 cycles
 SCF Done:  E(RB3LYP) =  -2377.99875974     A.U. after    9 cycles
 SCF Done:  E(RB3LYP) =  -2377.99876112     A.U. after    7 cycles
 Optimization completed.
    -- Stationary point found.
 Normal termination of Gaussian 16 at Fri Jun 17 16:19:39 2022.

 ------------------------------------------------------------------
 #N Geom=AllCheck Guess=TCheck SCRF=Check GenChk RB3LYP/ChkBas Freq
 ------------------------------------------------------------------

 Structure from the checkpoint file:  "/wrk/irikura/Gau-18027.chk"
 --------------------------------
 pentachloroethane, B3LYP/pcseg-2
 --------------------------------
 Charge =  0 Multiplicity = 1

                         Standard orientation:
 ---------------------------------------------------------------------
 Center     Atomic      Atomic             Coordinates (Angstroms)
 Number     Number       Type             X           Y           Z
 ---------------------------------------------------------------------
      1          6           0        0.092893   -0.612102   -0.000000
      2          6           0       -0.700970    0.724375    0.000000
      3          1           0       -1.756452    0.478441    0.000000
      4         17           0       -0.383020    1.693579    1.461383
      5         17           0       -0.383020    1.693579   -1.461383
      6         17           0        1.850018   -0.349177   -0.000000
      7         17           0       -0.383020   -1.552875    1.449865
      8         17           0       -0.383020   -1.552875   -1.449865
 ---------------------------------------------------------------------

 SCF Done:  E(RB3LYP) =  -2377.99876112     A.U. after    1 cycles

 The electronic state is 1-A'.
 Alpha  occ. eigenvalues -- -101.54734-101.54734-101.54608-101.53882-101.53882
 Alpha  occ. eigenvalues --  -10.38943 -10.33721  -9.49258  -9.49258  -9.49130
 Alpha  occ. eigenvalues --   -9.48406  -9.48406  -7.25488  -7.25488  -7.25364
 Alpha  occ. eigenvalues --   -7.24623  -7.24623  -7.24498  -7.24498  -7.24478
 Alpha  occ. eigenvalues --   -7.24478  -7.24359  -7.24357  -7.23651  -7.23651
 Alpha  occ. eigenvalues --   -7.23635  -7.23635  -0.98113  -0.91415  -0.86342
 Alpha  occ. eigenvalues --   -0.85901  -0.84265  -0.72828  -0.61851  -0.53445
 Alpha  occ. eigenvalues --   -0.51266  -0.51240  -0.46880  -0.45460  -0.37842
 Alpha  occ. eigenvalues --   -0.37360  -0.36131  -0.35420  -0.35130  -0.34194
 Alpha  occ. eigenvalues --   -0.34086  -0.33016  -0.32604  -0.31546
 Alpha virt. eigenvalues --   -0.05461  -0.04068  -0.03902  -0.00699   0.03078
 Alpha virt. eigenvalues --    0.03102   0.08045   0.12452   0.14864   0.15934
 Alpha virt. eigenvalues --    0.18922   0.20149   0.20969   0.22464   0.23507

 Mulliken charges:
               1
     1  C    0.129870
     2  C    0.003140
     3  H    0.138885
     4  Cl  -0.068096
     5  Cl  -0.068096
     6  Cl  -0.036130
     7  Cl  -0.049787
     8  Cl  -0.049787
 Sum of Mulliken charges =  -0.00000

 Dipole moment (field-independent basis, Debye):
    X=             -0.9006    Y=             -0.2452    Z=             -0.0000  Tot=              0.9334
 Quadrupole moment (field-independent basis, Debye-Ang):
   XX=            -72.5039   YY=            -76.6995   ZZ=            -74.8402
   XY=              0.3326   XZ=              0.0000   YZ=              0.0000

  Exact polarizability:  71.031   3.271  81.015   0.000  -0.000  92.421
 Approx polarizability: 116.119  11.672 118.955  -0.000   0.000 152.405

                      1                      2                      3
                     A"                     A"                     A'
 Frequencies --     71.6126               159.8051               168.0282
 Red. masses --     27.8574                33.0184                29.7422
 Frc consts  --      0.0842                 0.4968                 0.4948
 IR Inten    --      0.0407                 0.3229                 0.3972

                      4                      5                      6
                     A'                     A"                     A'
 Frequencies --    222.7119               234.0993               276.0037
 Red. masses --     34.2590                28.0126                27.8716
 Frc consts  --      1.0012                 0.9045                 1.2510
 IR Inten    --      0.0051                 0.0045                 0.0850

                      7                      8                      9
                     A"                     A'                     A'
 Frequencies --    318.6785               323.6893               398.0794
 Red. masses --     30.1824                19.6356                28.5750
 Frc consts  --      1.8060                 1.2121                 2.6679
 IR Inten    --      0.3357                 1.0006                 0.8886

                     10                     11                     12
                     A'                     A'                     A"
 Frequencies --    574.5331               709.4006               734.2884
 Red. masses --      8.4024                10.9426                12.2626
 Frc consts  --      1.6341                 3.2445                 3.8955
 IR Inten    --     30.7702                90.8002               222.1489

                     13                     14                     15
                     A'                     A"                     A'
 Frequencies --    796.7135               801.8830               997.9279
 Red. masses --      6.7261                 8.7293                 9.4048
 Frc consts  --      2.5155                 3.3072                 5.5182
 IR Inten    --     79.5883                 0.1925                10.3449

                     16                     17                     18
                     A"                     A'                     A'
 Frequencies --   1228.7880              1278.5975              3147.2811
 Red. masses --      1.0843                 1.1626                 1.0871
 Frc consts  --      0.9647                 1.1198                 6.3443
 IR Inten    --     11.8026                 7.2726                 4.7172

 - Thermochemistry -
 -------------------
 Temperature   298.150 Kelvin.  Pressure   1.00000 Atm.
 Atom     1 has atomic number  6 and mass  12.00000

 Molecular mass:   199.85209 amu.
 Principal axes and moments of inertia in atomic units:
                           1         2         3
     Eigenvalues --  1574.344771906.314572448.74309
           X           -0.14014   0.00000   0.99013
           Y            0.99013   0.00000   0.14014
           Z            0.00000   1.00000  -0.00000
 This molecule is an asymmetric top.
 Rotational symmetry number  1.
 Warning -- assumption of classical behavior for rotation
           may cause significant error
 Rotational temperatures (Kelvin)      0.05502     0.04544     0.03537
 Rotational constants (GHZ):           1.14634     0.94672     0.73701
 Zero-point vibrational energy      74420.4 (Joules/Mol)
                                   17.78691 (Kcal/Mol)
 Warning -- explicit consideration of  10 degrees of freedom as
           vibrations may cause significant error
 Vibrational temperatures:    103.03   229.92   241.76   320.43   336.82
          (Kelvin)            397.11   458.51   465.72   572.75   826.62
                             1020.67  1056.48  1146.29  1153.73  1435.80
                             1767.95  1839.62  4528.24

 Zero-point correction=                           0.028345 (Hartree/Particle)
 Thermal correction to Energy=                    0.036398
 Thermal correction to Enthalpy=                  0.037342
 Thermal correction to Gibbs Free Energy=        -0.006290
 Sum of electronic and zero-point Energies=          -2377.970416
 Sum of electronic and thermal Energies=             -2377.962363
 Sum of electronic and thermal Enthalpies=           -2377.961419
 Sum of electronic and thermal Free Energies=        -2378.005051

                     E (Thermal)             CV                S
                      KCal/Mol        Cal/Mol-Kelvin    Cal/Mol-Kelvin
 Total                   22.840             26.447             91.831
 Electronic               0.000              0.000              0.000
 Translational            0.889              2.981             41.782
 Rotational               0.889              2.981             30.375
 Vibrational             21.063             20.486             19.674
 Vibration     1          0.598              1.968              4.109
 Vibration     2          0.622              1.892              2.552
 Vibration     3          0.625              1.882              2.457
 Vibration     4          0.648              1.806              1.937
 Vibration     5          0.654              1.789              1.847
 Vibration     6          0.678              1.718              1.558
 Vibration     7          0.705              1.638              1.317
 Vibration     8          0.708              1.628              1.291
 Vibration     9          0.764              1.474              0.970
 Vibration    10          0.931              1.086              0.496

 Optimization completed.
    -- Stationary point found.
 Normal termination of Gaussian 16 at Fri Jun 17 16:21:15 2022.
