 Gaussian 16, Revision B.01,

 ---------------------------------------
 # b3lyp/gen opt freq CPHF(Grid=OneStep)
 ---------------------------------------

 --------------------------------
 pentachloroethane, B3LYP/pcseg-2
 --------------------------------
 Symbolic Z-matrix:
 Charge =  0 Multiplicity = 1

 SCF Done:  E(RB3LYP) =  -2377.99876112     A.U. after   13 cycles
 Optimization completed.
    -- Stationary point found.
 Normal termination of Gaussian 16 at Wed Sep 27 19:03:53 2023.

 ------------------------------------------------------------------
 #N Geom=AllCheck Guess=TCheck SCRF=Check GenChk RB3LYP/ChkBas Freq
 ------------------------------------------------------------------

 Structure from the checkpoint file:  "c2hcl5.chk"
 --------------------------------
 pentachloroethane, B3LYP/pcseg-2
 --------------------------------
 Charge =  0 Multiplicity = 1

 SCF Done:  E(RB3LYP) =  -2377.99876112     A.U. after    1 cycles

  Exact polarizability:  71.033   3.271  81.017   0.000  -0.000  92.421
 Approx polarizability: 116.119  11.672 118.955   0.000   0.000 152.405

                      1                      2                      3
                     A"                     A"                     A'
 Frequencies --     71.6059               159.8083               168.0224
 Red. masses --     27.8581                33.0183                29.7421
 Frc consts  --      0.0842                 0.4968                 0.4947
 IR Inten    --      0.0407                 0.3229                 0.3972

                      4                      5                      6
                     A'                     A"                     A'
 Frequencies --    222.7166               234.0964               276.0041
 Red. masses --     34.2587                28.0124                27.8713
 Frc consts  --      1.0012                 0.9045                 1.2509
 IR Inten    --      0.0050                 0.0045                 0.0849

                      7                      8                      9
                     A"                     A'                     A'
 Frequencies --    318.6795               323.6897               398.0771
 Red. masses --     30.1819                19.6359                28.5743
 Frc consts  --      1.8059                 1.2122                 2.6678
 IR Inten    --      0.3356                 1.0013                 0.8892

                     10                     11                     12
                     A'                     A'                     A"
 Frequencies --    574.5247               709.4027               734.2891
 Red. masses --      8.4026                10.9425                12.2627
 Frc consts  --      1.6341                 3.2445                 3.8956
 IR Inten    --     30.7713                90.7918               222.1697

                     13                     14                     15
                     A'                     A"                     A'
 Frequencies --    796.7020               801.8556               997.9222
 Red. masses --      6.7262                 8.7296                 9.4051
 Frc consts  --      2.5154                 3.3070                 5.5183
 IR Inten    --     79.5810                 0.1936                10.3399

                     16                     17                     18
                     A"                     A'                     A'
 Frequencies --   1228.7823              1278.6021              3147.2949
 Red. masses --      1.0843                 1.1626                 1.0871
 Frc consts  --      0.9646                 1.1198                 6.3443
 IR Inten    --     11.8094                 7.2762                 4.7138

 - Thermochemistry -
 -------------------
 Temperature   298.150 Kelvin.  Pressure   1.00000 Atm.
 Atom     1 has atomic number  6 and mass  12.00000

 Molecular mass:   199.85209 amu.
 Principal axes and moments of inertia in atomic units:
                           1         2         3
     Eigenvalues --  1574.344431906.314172448.74289
           X           -0.14014   0.00000   0.99013
           Y            0.99013  -0.00000   0.14014
           Z            0.00000   1.00000  -0.00000
 This molecule is an asymmetric top.
 Rotational symmetry number  1.
 Warning -- assumption of classical behavior for rotation
           may cause significant error
 Rotational temperatures (Kelvin)      0.05502     0.04544     0.03537
 Rotational constants (GHZ):           1.14634     0.94672     0.73701
 Zero-point vibrational energy      74420.1 (Joules/Mol)
                                   17.78684 (Kcal/Mol)
 Warning -- explicit consideration of  10 degrees of freedom as
           vibrations may cause significant error
 Vibrational temperatures:    103.02   229.93   241.75   320.44   336.81
          (Kelvin)            397.11   458.51   465.72   572.74   826.61
                             1020.67  1056.48  1146.28  1153.69  1435.79
                             1767.94  1839.62  4528.26

 Zero-point correction=                           0.028345 (Hartree/Particle)
 Thermal correction to Energy=                    0.036398
 Thermal correction to Enthalpy=                  0.037342
 Thermal correction to Gibbs Free Energy=        -0.006290
 Sum of electronic and zero-point Energies=          -2377.970416
 Sum of electronic and thermal Energies=             -2377.962363
 Sum of electronic and thermal Enthalpies=           -2377.961419
 Sum of electronic and thermal Free Energies=        -2378.005051

                     E (Thermal)             CV                S
                      KCal/Mol        Cal/Mol-Kelvin    Cal/Mol-Kelvin
 Total                   22.840             26.448             91.832
 Electronic               0.000              0.000              0.000
 Translational            0.889              2.981             41.782
 Rotational               0.889              2.981             30.375
 Vibrational             21.063             20.486             19.674
 Vibration     1          0.598              1.968              4.109
 Vibration     2          0.622              1.892              2.552
 Vibration     3          0.625              1.882              2.457
 Vibration     4          0.648              1.806              1.937
 Vibration     5          0.654              1.789              1.847
 Vibration     6          0.678              1.718              1.558
 Vibration     7          0.705              1.638              1.317
 Vibration     8          0.708              1.628              1.291
 Vibration     9          0.764              1.474              0.970
 Vibration    10          0.931              1.086              0.496

 Optimization completed.
    -- Stationary point found.
 Normal termination of Gaussian 16 at Wed Sep 27 19:10:07 2023.
 Gaussian 16:  ES64L-G16RevB.01 20-Dec-2017

 ---------------------------------
 # rohf/gen geom=check guess=check
 ---------------------------------

 -----------------------------------
 pentachloroethane, ROHF/cc-pVTZ-F12
 -----------------------------------
 Structure from the checkpoint file:  "c2hcl5.chk"
 Charge =  0 Multiplicity = 1

                         Standard orientation:
 ---------------------------------------------------------------------
 Center     Atomic      Atomic             Coordinates (Angstroms)
 Number     Number       Type             X           Y           Z
 ---------------------------------------------------------------------
      1          6           0        0.092893   -0.612102   -0.000000
      2          6           0       -0.700970    0.724375    0.000000
      3          1           0       -1.756452    0.478441    0.000000
      4         17           0       -0.383020    1.693579    1.461383
      5         17           0       -0.383020    1.693579   -1.461383
      6         17           0        1.850018   -0.349177   -0.000000
      7         17           0       -0.383020   -1.552875    1.449865
      8         17           0       -0.383020   -1.552875   -1.449865
 ---------------------------------------------------------------------

 SCF Done:  E(ROHF) =  -2373.92471986     A.U. after   11 cycles

 The electronic state is 1-A'.
 Alpha  occ. eigenvalues -- -104.87364-104.87364-104.87232-104.86395-104.86395
 Alpha  occ. eigenvalues --  -11.46390 -11.40577 -10.59886 -10.59885 -10.59752
 Alpha  occ. eigenvalues --  -10.58916 -10.58916  -8.06567  -8.06566  -8.06438
 Alpha  occ. eigenvalues --   -8.06388  -8.06388  -8.06387  -8.06387  -8.06255
 Alpha  occ. eigenvalues --   -8.06254  -8.05605  -8.05605  -8.05434  -8.05434
 Alpha  occ. eigenvalues --   -8.05427  -8.05427  -1.27328  -1.19069  -1.12787
 Alpha  occ. eigenvalues --   -1.12287  -1.10414  -0.96098  -0.81303  -0.69613
 Alpha  occ. eigenvalues --   -0.66296  -0.65622  -0.61059  -0.58548  -0.51650
 Alpha  occ. eigenvalues --   -0.51056  -0.50047  -0.49177  -0.48318  -0.47607
 Alpha  occ. eigenvalues --   -0.47481  -0.46156  -0.45994  -0.44617
 Alpha virt. eigenvalues --    0.04178   0.05780   0.06001   0.06086   0.07485
 Alpha virt. eigenvalues --    0.08036   0.09025   0.10612   0.10616   0.10774
 Alpha virt. eigenvalues --    0.11524   0.11715   0.13392   0.13546   0.13833

 Mulliken charges and spin densities:
               1          2
     1  C   -0.149593   0.000000
     2  C   -0.172077   0.000000
     3  H    0.205268   0.000000
     4  Cl  -0.000185   0.000000
     5  Cl  -0.000185   0.000000
     6  Cl   0.041714   0.000000
     7  Cl   0.037529   0.000000
     8  Cl   0.037529   0.000000
 Sum of Mulliken charges =  -0.00000   0.00000

 Dipole moment (field-independent basis, Debye):
    X=             -0.9391    Y=             -0.2692    Z=              0.0000  Tot=              0.9769
 Quadrupole moment (field-independent basis, Debye-Ang):
   XX=            -72.5224   YY=            -76.9537   ZZ=            -75.0038
   XY=              0.3227   XZ=              0.0000   YZ=             -0.0000

 Normal termination of Gaussian 16 at Wed Sep 27 19:13:49 2023.
