 Gaussian 16, Revision B.01,
 Gaussian 16:  ES64L-G16RevB.01 20-Dec-2017

 --------------------
 # b3lyp/gen opt freq
 --------------------

 --------------------------------
 trifluoroethylene, B3LYP/pcseg-2
 --------------------------------
 Symbolic Z-matrix:
 Charge =  0 Multiplicity = 1

 SCF Done:  E(RB3LYP) =  -376.452503036     A.U. after   12 cycles
 SCF Done:  E(RB3LYP) =  -376.452632651     A.U. after    8 cycles
 SCF Done:  E(RB3LYP) =  -376.452643045     A.U. after    7 cycles
 Optimization completed.
    -- Stationary point found.
 Normal termination of Gaussian 16 at Thu Jun 16 12:10:16 2022.

 ------------------------------------------------------------------
 #N Geom=AllCheck Guess=TCheck SCRF=Check GenChk RB3LYP/ChkBas Freq
 ------------------------------------------------------------------

 Structure from the checkpoint file:  "/wrk/irikura/Gau-26721.chk"
 --------------------------------
 trifluoroethylene, B3LYP/pcseg-2
 --------------------------------
 Charge =  0 Multiplicity = 1

                         Standard orientation:
 ---------------------------------------------------------------------
 Center     Atomic      Atomic             Coordinates (Angstroms)
 Number     Number       Type             X           Y           Z
 ---------------------------------------------------------------------
      1          6           0        0.000000    0.430548    0.000000
      2          6           0       -0.703431   -0.687112    0.000000
      3          9           0        1.314988    0.501514    0.000000
      4          9           0       -0.555622    1.630278    0.000000
      5          9           0       -0.092621   -1.882281    0.000000
      6          1           0       -1.780128   -0.706222    0.000000
 ---------------------------------------------------------------------

 SCF Done:  E(RB3LYP) =  -376.452643045     A.U. after    1 cycles

 The electronic state is 1-A'.
 Alpha  occ. eigenvalues --  -24.73883 -24.73873 -24.71208 -10.36235 -10.27797
 Alpha  occ. eigenvalues --   -1.31353  -1.25734  -1.24807  -0.80807  -0.66679
 Alpha  occ. eigenvalues --   -0.61156  -0.59302  -0.55327  -0.53438  -0.48360
 Alpha  occ. eigenvalues --   -0.48082  -0.47437  -0.45469  -0.41406  -0.27632
 Alpha virt. eigenvalues --    0.00340   0.01816   0.03927   0.06777   0.14177
 Alpha virt. eigenvalues --    0.14611   0.17300   0.19527   0.20794   0.21087
 Alpha virt. eigenvalues --    0.27687   0.29796   0.35980   0.39075   0.40918

 Mulliken charges:
               1
     1  C    0.498597
     2  C    0.169929
     3  F   -0.230390
     4  F   -0.240396
     5  F   -0.261116
     6  H    0.063378
 Sum of Mulliken charges =  -0.00000

 Dipole moment (field-independent basis, Debye):
    X=             -1.3063    Y=              0.1645    Z=              0.0000  Tot=              1.3166
 Quadrupole moment (field-independent basis, Debye-Ang):
   XX=            -24.8653   YY=            -29.5695   ZZ=            -26.1028
   XY=              1.2424   XZ=              0.0000   YZ=              0.0000

  Exact polarizability:  27.171   3.863  33.185   0.000   0.000  18.292
 Approx polarizability:  37.922   7.523  49.215  -0.000  -0.000  24.506

                      1                      2                      3
                     A'                     A"                     A'
 Frequencies --    235.1735               308.1100               485.7652
 Red. masses --     13.8149                 6.5759                13.5131
 Frc consts  --      0.4502                 0.3678                 1.8787
 IR Inten    --      4.3667                 4.2730                 1.8618

                      4                      5                      6
                     A"                     A'                     A"
 Frequencies --    580.0485               625.3783               785.4424
 Red. masses --      6.4953                13.9946                 1.3156
 Frc consts  --      1.2876                 3.2247                 0.4782
 IR Inten    --      0.0086                 3.0921                36.1237

                      7                      8                      9
                     A'                     A'                     A'
 Frequencies --    939.9700              1170.8185              1263.7323
 Red. masses --      6.9250                 4.1543                 3.4480
 Frc consts  --      3.6049                 3.3552                 3.2444
 IR Inten    --     63.7583               172.5029               224.6540

                     10                     11                     12
                     A'                     A'                     A'
 Frequencies --   1364.6187              1823.8632              3251.2908
 Red. masses --      2.0057                 9.3589                 1.0944
 Frc consts  --      2.2006                18.3425                 6.8164
 IR Inten    --    103.5893                82.1059                10.0106

 - Thermochemistry -
 -------------------
 Temperature   298.150 Kelvin.  Pressure   1.00000 Atm.
 Atom     1 has atomic number  6 and mass  12.00000

 Molecular mass:    82.00303 amu.
 Principal axes and moments of inertia in atomic units:
                           1         2         3
     Eigenvalues --   169.81754 469.06171 638.87925
           X            0.06783   0.99770   0.00000
           Y            0.99770  -0.06783   0.00000
           Z            0.00000  -0.00000   1.00000
 This molecule is an asymmetric top.
 Rotational symmetry number  1.
 Rotational temperatures (Kelvin)      0.51004     0.18465     0.13557
 Rotational constants (GHZ):          10.62753     3.84756     2.82485
 Zero-point vibrational energy      76765.6 (Joules/Mol)
                                   18.34743 (Kcal/Mol)
 Warning -- explicit consideration of   4 degrees of freedom as
           vibrations may cause significant error
 Vibrational temperatures:    338.36   443.30   698.91   834.56   899.78
          (Kelvin)           1130.08  1352.41  1684.55  1818.23  1963.38
                             2624.13  4677.88

 Zero-point correction=                           0.029238 (Hartree/Particle)
 Thermal correction to Energy=                    0.033712
 Thermal correction to Enthalpy=                  0.034656
 Thermal correction to Gibbs Free Energy=         0.001492
 Sum of electronic and zero-point Energies=           -376.423405
 Sum of electronic and thermal Energies=              -376.418931
 Sum of electronic and thermal Enthalpies=            -376.417987
 Sum of electronic and thermal Free Energies=         -376.451152

                     E (Thermal)             CV                S
                      KCal/Mol        Cal/Mol-Kelvin    Cal/Mol-Kelvin
 Total                   21.155             14.398             69.801
 Electronic               0.000              0.000              0.000
 Translational            0.889              2.981             39.127
 Rotational               0.889              2.981             25.435
 Vibrational             19.377              8.437              5.240
 Vibration     1          0.655              1.787              1.839
 Vibration     2          0.698              1.658              1.372
 Vibration     3          0.842              1.282              0.695
 Vibration     4          0.937              1.074              0.485

 Optimization completed.
    -- Stationary point found.
 Normal termination of Gaussian 16 at Thu Jun 16 12:10:51 2022.
