 Gaussian 16, Revision B.01,
 Gaussian 16:  ES64L-G16RevB.01 20-Dec-2017

 --------------------
 # b3lyp/gen opt freq
 --------------------

 --------------------------
 oxalic acid, B3LYP/pcseg-2
 --------------------------
 Symbolic Z-matrix:
 Charge =  0 Multiplicity = 1

 SCF Done:  E(RB3LYP) =  -378.497796750     A.U. after   12 cycles
 SCF Done:  E(RB3LYP) =  -378.497826219     A.U. after    8 cycles
 SCF Done:  E(RB3LYP) =  -378.497830744     A.U. after    7 cycles
 Optimization completed.
    -- Stationary point found.
 Normal termination of Gaussian 16 at Thu Jun 16 16:08:20 2022.

 ------------------------------------------------------------------
 #N Geom=AllCheck Guess=TCheck SCRF=Check GenChk RB3LYP/ChkBas Freq
 ------------------------------------------------------------------

 Structure from the checkpoint file:  "/wrk/irikura/Gau-29116.chk"
 --------------------------
 oxalic acid, B3LYP/pcseg-2
 --------------------------
 Charge =  0 Multiplicity = 1

                         Standard orientation:
 ---------------------------------------------------------------------
 Center     Atomic      Atomic             Coordinates (Angstroms)
 Number     Number       Type             X           Y           Z
 ---------------------------------------------------------------------
      1          6           0       -0.054233    0.770744    0.000000
      2          6           0        0.054233   -0.770744    0.000000
      3          8           0        1.120834    1.379325    0.000000
      4          8           0       -1.120834   -1.379325    0.000000
      5          8           0       -1.120834    1.321991    0.000000
      6          8           0        1.120834   -1.321991    0.000000
      7          1           0        1.809865    0.691336    0.000000
      8          1           0       -1.809865   -0.691336    0.000000
 ---------------------------------------------------------------------

 SCF Done:  E(RB3LYP) =  -378.497830744     A.U. after    1 cycles

 The electronic state is 1-AG.
 Alpha  occ. eigenvalues --  -19.21524 -19.21524 -19.16496 -19.16496 -10.35479
 Alpha  occ. eigenvalues --  -10.35458  -1.17250  -1.14156  -1.09062  -1.06804
 Alpha  occ. eigenvalues --   -0.71517  -0.65682  -0.65152  -0.52516  -0.51660
 Alpha  occ. eigenvalues --   -0.49475  -0.48647  -0.46897  -0.41690  -0.38383
 Alpha  occ. eigenvalues --   -0.37905  -0.36888  -0.31262
 Alpha virt. eigenvalues --   -0.09956  -0.00491   0.02586   0.04484   0.09566
 Alpha virt. eigenvalues --    0.11756   0.13108   0.17608   0.18272   0.19990
 Alpha virt. eigenvalues --    0.20061   0.20065   0.24060   0.24483   0.27305

 Mulliken charges:
               1
     1  C    0.463733
     2  C    0.463733
     3  O   -0.287654
     4  O   -0.287654
     5  O   -0.407206
     6  O   -0.407206
     7  H    0.231127
     8  H    0.231127
 Sum of Mulliken charges =   0.00000

 Dipole moment (field-independent basis, Debye):
    X=              0.0000    Y=             -0.0000    Z=              0.0000  Tot=              0.0000
 Quadrupole moment (field-independent basis, Debye-Ang):
   XX=            -30.9727   YY=            -42.8444   ZZ=            -31.9453
   XY=              3.9787   XZ=              0.0000   YZ=              0.0000

  Exact polarizability:  47.886  -2.133  38.805   0.000   0.000  22.943
 Approx polarizability:  80.273  -7.829  51.393  -0.000  -0.000  32.870

                      1                      2                      3
                     AU                     BU                     AG
 Frequencies --    122.0669               259.6561               404.6678
 Red. masses --     10.5482                 6.2536                 6.5692
 Frc consts  --      0.0926                 0.2484                 0.6338
 IR Inten    --      6.7925                55.0756                 0.0000

                      4                      5                      6
                     AU                     AG                     BU
 Frequencies --    464.8423               561.6347               676.1876
 Red. masses --     12.6529                 8.1056                 8.0433
 Frc consts  --      1.6108                 1.5064                 2.1668
 IR Inten    --     56.8549                 0.0000                22.4559

                      7                      8                      9
                     BG                     AU                     AG
 Frequencies --    701.3669               705.1911               822.9834
 Red. masses --      1.1126                 1.0662                 9.7972
 Frc consts  --      0.3224                 0.3124                 3.9096
 IR Inten    --      0.0000               193.5507                 0.0000

                     10                     11                     12
                     BG                     BU                     AG
 Frequencies --    838.2333              1203.0822              1220.5119
 Red. masses --     10.1497                 3.2607                 1.8036
 Frc consts  --      4.2018                 2.7807                 1.5830
 IR Inten    --      0.0000                23.3262                 0.0000

                     13                     14                     15
                     BU                     AG                     AG
 Frequencies --   1329.9335              1429.3771              1826.8144
 Red. masses --      1.7153                 2.8957                11.3657
 Frc consts  --      1.7875                 3.4858                22.3478
 IR Inten    --    812.4425                 0.0000                 0.0000

                     16                     17                     18
                     BU                     AG                     BU
 Frequencies --   1850.2278              3645.9332              3648.9193
 Red. masses --      9.0150                 1.0641                 1.0654
 Frc consts  --     18.1831                 8.3338                 8.3578
 IR Inten    --    503.6428                 0.0000               261.7999

 - Thermochemistry -
 -------------------
 Temperature   298.150 Kelvin.  Pressure   1.00000 Atm.
 Atom     1 has atomic number  6 and mass  12.00000

 Molecular mass:    89.99531 amu.
 Principal axes and moments of inertia in atomic units:
                           1         2         3
     Eigenvalues --   309.84755 472.35259 782.20014
           X            0.07880   0.99689   0.00000
           Y            0.99689  -0.07880   0.00000
           Z            0.00000  -0.00000   1.00000
 This molecule is an asymmetric top.
 Rotational symmetry number  2.
 Rotational temperatures (Kelvin)      0.27954     0.18337     0.11073
 Rotational constants (GHZ):           5.82461     3.82075     2.30726
 Zero-point vibrational energy     129864.4 (Joules/Mol)
                                   31.03833 (Kcal/Mol)
 Warning -- explicit consideration of   5 degrees of freedom as
           vibrations may cause significant error
 Vibrational temperatures:    175.63   373.59   582.23   668.80   808.07
          (Kelvin)            972.88  1009.11  1014.61  1184.09  1206.03
                             1730.97  1756.04  1913.48  2056.55  2628.38
                             2662.07  5245.68  5249.98

 Zero-point correction=                           0.049463 (Hartree/Particle)
 Thermal correction to Energy=                    0.054736
 Thermal correction to Enthalpy=                  0.055681
 Thermal correction to Gibbs Free Energy=         0.021163
 Sum of electronic and zero-point Energies=           -378.448368
 Sum of electronic and thermal Energies=              -378.443094
 Sum of electronic and thermal Enthalpies=            -378.442150
 Sum of electronic and thermal Free Energies=         -378.476668

                     E (Thermal)             CV                S
                      KCal/Mol        Cal/Mol-Kelvin    Cal/Mol-Kelvin
 Total                   34.348             17.934             72.648
 Electronic               0.000              0.000              0.000
 Translational            0.889              2.981             39.404
 Rotational               0.889              2.981             24.863
 Vibrational             32.570             11.973              8.382
 Vibration     1          0.610              1.931              3.067
 Vibration     2          0.668              1.746              1.664
 Vibration     3          0.770              1.460              0.946
 Vibration     4          0.822              1.328              0.752
 Vibration     5          0.917              1.114              0.521

 Optimization completed.
    -- Stationary point found.
 Normal termination of Gaussian 16 at Thu Jun 16 16:09:08 2022.
