 Gaussian 16, Revision B.01,

 ---------------------------------------
 # b3lyp/gen opt freq CPHF(Grid=OneStep)
 ---------------------------------------

 --------------------------
 oxalic acid, B3LYP/pcseg-2
 --------------------------
 Symbolic Z-matrix:
 Charge =  0 Multiplicity = 1

 SCF Done:  E(RB3LYP) =  -378.497830744     A.U. after   12 cycles
 Optimization completed.
    -- Stationary point found.
 Normal termination of Gaussian 16 at Sun Oct  1 05:10:53 2023.

 ------------------------------------------------------------------
 #N Geom=AllCheck Guess=TCheck SCRF=Check GenChk RB3LYP/ChkBas Freq
 ------------------------------------------------------------------

 Structure from the checkpoint file:  "c2o4h2.chk"
 --------------------------
 oxalic acid, B3LYP/pcseg-2
 --------------------------
 Charge =  0 Multiplicity = 1

 SCF Done:  E(RB3LYP) =  -378.497830744     A.U. after    1 cycles

  Exact polarizability:  47.886  -2.133  38.804   0.000   0.000  22.943
 Approx polarizability:  80.273  -7.829  51.393  -0.000  -0.000  32.870

                      1                      2                      3
                     AU                     BU                     AG
 Frequencies --    122.0674               259.6547               404.6657
 Red. masses --     10.5482                 6.2536                 6.5691
 Frc consts  --      0.0926                 0.2484                 0.6338
 IR Inten    --      6.7924                55.0770                 0.0000

                      4                      5                      6
                     AU                     AG                     BU
 Frequencies --    464.8422               561.6352               676.1875
 Red. masses --     12.6528                 8.1057                 8.0434
 Frc consts  --      1.6108                 1.5064                 2.1668
 IR Inten    --     56.8569                 0.0000                22.4564

                      7                      8                      9
                     BG                     AU                     AG
 Frequencies --    701.3645               705.1871               822.9867
 Red. masses --      1.1126                 1.0662                 9.7974
 Frc consts  --      0.3224                 0.3124                 3.9097
 IR Inten    --      0.0000               193.5483                 0.0000

                     10                     11                     12
                     BG                     BU                     AG
 Frequencies --    838.2330              1203.0742              1220.5103
 Red. masses --     10.1497                 3.2609                 1.8036
 Frc consts  --      4.2018                 2.7808                 1.5830
 IR Inten    --      0.0000                23.3338                 0.0000

                     13                     14                     15
                     BU                     AG                     AG
 Frequencies --   1329.9367              1429.3748              1826.8155
 Red. masses --      1.7153                 2.8956                11.3658
 Frc consts  --      1.7875                 3.4856                22.3480
 IR Inten    --    812.4115                 0.0000                 0.0000

                     16                     17                     18
                     BU                     AG                     BU
 Frequencies --   1850.2288              3645.9352              3648.9221
 Red. masses --      9.0151                 1.0641                 1.0654
 Frc consts  --     18.1833                 8.3338                 8.3578
 IR Inten    --    503.6403                 0.0000               261.8035

 - Thermochemistry -
 -------------------
 Temperature   298.150 Kelvin.  Pressure   1.00000 Atm.
 Atom     1 has atomic number  6 and mass  12.00000

 Molecular mass:    89.99531 amu.
 Principal axes and moments of inertia in atomic units:
                           1         2         3
     Eigenvalues --   309.84768 472.35269 782.20036
           X            0.07880   0.99689   0.00000
           Y            0.99689  -0.07880   0.00000
           Z            0.00000  -0.00000   1.00000
 This molecule is an asymmetric top.
 Rotational symmetry number  2.
 Rotational temperatures (Kelvin)      0.27954     0.18337     0.11073
 Rotational constants (GHZ):           5.82461     3.82075     2.30726
 Zero-point vibrational energy     129864.3 (Joules/Mol)
                                   31.03832 (Kcal/Mol)
 Warning -- explicit consideration of   5 degrees of freedom as
           vibrations may cause significant error
 Vibrational temperatures:    175.63   373.59   582.22   668.80   808.07
          (Kelvin)            972.88  1009.11  1014.61  1184.09  1206.03
                             1730.96  1756.04  1913.48  2056.55  2628.38
                             2662.07  5245.69  5249.99

 Zero-point correction=                           0.049463 (Hartree/Particle)
 Thermal correction to Energy=                    0.054736
 Thermal correction to Enthalpy=                  0.055681
 Thermal correction to Gibbs Free Energy=         0.021163
 Sum of electronic and zero-point Energies=           -378.448368
 Sum of electronic and thermal Energies=              -378.443094
 Sum of electronic and thermal Enthalpies=            -378.442150
 Sum of electronic and thermal Free Energies=         -378.476668

                     E (Thermal)             CV                S
                      KCal/Mol        Cal/Mol-Kelvin    Cal/Mol-Kelvin
 Total                   34.348             17.934             72.648
 Electronic               0.000              0.000              0.000
 Translational            0.889              2.981             39.404
 Rotational               0.889              2.981             24.863
 Vibrational             32.570             11.973              8.382
 Vibration     1          0.610              1.931              3.067
 Vibration     2          0.668              1.746              1.664
 Vibration     3          0.770              1.460              0.946
 Vibration     4          0.822              1.328              0.752
 Vibration     5          0.917              1.114              0.521

 Optimization completed.
    -- Stationary point found.
 Normal termination of Gaussian 16 at Sun Oct  1 05:13:48 2023.
 Gaussian 16:  ES64L-G16RevB.01 20-Dec-2017

 ---------------------------------
 # rohf/gen geom=check guess=check
 ---------------------------------

 -----------------------------
 oxalic acid, ROHF/cc-pVTZ-F12
 -----------------------------
 Structure from the checkpoint file:  "c2o4h2.chk"
 Charge =  0 Multiplicity = 1

                         Standard orientation:
 ---------------------------------------------------------------------
 Center     Atomic      Atomic             Coordinates (Angstroms)
 Number     Number       Type             X           Y           Z
 ---------------------------------------------------------------------
      1          6           0       -0.054233    0.770744    0.000000
      2          6           0        0.054233   -0.770744    0.000000
      3          8           0        1.120834    1.379325    0.000000
      4          8           0       -1.120834   -1.379325    0.000000
      5          8           0       -1.120834    1.321991    0.000000
      6          8           0        1.120834   -1.321991    0.000000
      7          1           0        1.809865    0.691336    0.000000
      8          1           0       -1.809865   -0.691336    0.000000
 ---------------------------------------------------------------------

 SCF Done:  E(ROHF) =  -376.551361660     A.U. after   12 cycles

 The electronic state is 1-AG.
 Alpha  occ. eigenvalues --  -20.65080 -20.65080 -20.60064 -20.60063 -11.43582
 Alpha  occ. eigenvalues --  -11.43527  -1.52876  -1.49193  -1.43185  -1.40659
 Alpha  occ. eigenvalues --   -0.96230  -0.86174  -0.85476  -0.72842  -0.70103
 Alpha  occ. eigenvalues --   -0.69686  -0.68741  -0.64594  -0.60097  -0.57097
 Alpha  occ. eigenvalues --   -0.52881  -0.52300  -0.47880
 Alpha virt. eigenvalues --    0.04716   0.05689   0.05697   0.06059   0.06548
 Alpha virt. eigenvalues --    0.08927   0.09036   0.09113   0.13284   0.14967
 Alpha virt. eigenvalues --    0.15349   0.17177   0.18513   0.19197   0.19883

 Mulliken charges and spin densities:
               1          2
     1  C    0.738942   0.000000
     2  C    0.738942   0.000000
     3  O   -0.618472   0.000000
     4  O   -0.618472   0.000000
     5  O   -0.558798   0.000000
     6  O   -0.558798   0.000000
     7  H    0.438328   0.000000
     8  H    0.438328   0.000000
 Sum of Mulliken charges =  -0.00000   0.00000

 Dipole moment (field-independent basis, Debye):
    X=              0.0000    Y=              0.0000    Z=              0.0000  Tot=              0.0000
 Quadrupole moment (field-independent basis, Debye-Ang):
   XX=            -31.0562   YY=            -43.2950   ZZ=            -31.7757
   XY=              4.0432   XZ=              0.0000   YZ=              0.0000

 Normal termination of Gaussian 16 at Sun Oct  1 05:15:27 2023.
