 Gaussian 16, Revision B.01,
 Gaussian 16:  ES64L-G16RevB.01 20-Dec-2017

 --------------------
 # b3lyp/gen opt freq
 --------------------

 -----------------------------
 cyclopropenone, B3LYP/pcseg-2
 -----------------------------
 Symbolic Z-matrix:
 Charge =  0 Multiplicity = 1

 SCF Done:  E(RB3LYP) =  -190.722451327     A.U. after   12 cycles
 SCF Done:  E(RB3LYP) =  -190.722508398     A.U. after    8 cycles
 SCF Done:  E(RB3LYP) =  -190.722511179     A.U. after    8 cycles
 Optimization completed.
    -- Stationary point found.
 Normal termination of Gaussian 16 at Thu Jun 16 18:37:27 2022.

 ------------------------------------------------------------------
 #N Geom=AllCheck Guess=TCheck SCRF=Check GenChk RB3LYP/ChkBas Freq
 ------------------------------------------------------------------

 Structure from the checkpoint file:  "/wrk/irikura/Gau-31400.chk"
 -----------------------------
 cyclopropenone, B3LYP/pcseg-2
 -----------------------------
 Charge =  0 Multiplicity = 1

                         Standard orientation:
 ---------------------------------------------------------------------
 Center     Atomic      Atomic             Coordinates (Angstroms)
 Number     Number       Type             X           Y           Z
 ---------------------------------------------------------------------
      1          6           0        0.000000   -0.000000    0.332236
      2          8           0        0.000000   -0.000000    1.532432
      3          6           0        0.000000    0.669548   -0.927589
      4          6           0       -0.000000   -0.669548   -0.927589
      5          1           0        0.000000    1.544863   -1.560901
      6          1           0       -0.000000   -1.544863   -1.560901
 ---------------------------------------------------------------------

 SCF Done:  E(RB3LYP) =  -190.722511179     A.U. after    1 cycles

 The electronic state is 1-A1.
 Alpha  occ. eigenvalues --  -19.10879 -10.28468 -10.23776 -10.23688  -1.04529
 Alpha  occ. eigenvalues --   -0.92807  -0.61249  -0.59496  -0.47840  -0.44216
 Alpha  occ. eigenvalues --   -0.43386  -0.40007  -0.31329  -0.25115
 Alpha virt. eigenvalues --   -0.05584   0.01516   0.02277   0.03342   0.07176
 Alpha virt. eigenvalues --    0.10391   0.11422   0.13933   0.15716   0.20558
 Alpha virt. eigenvalues --    0.22041   0.22708   0.24772   0.25602   0.27013

 Mulliken charges:
               1
     1  C    0.304597
     2  O   -0.415947
     3  C   -0.025569
     4  C   -0.025569
     5  H    0.081244
     6  H    0.081244
 Sum of Mulliken charges =  -0.00000

 Dipole moment (field-independent basis, Debye):
    X=             -0.0000    Y=              0.0000    Z=             -4.3071  Tot=              4.3071
 Quadrupole moment (field-independent basis, Debye-Ang):
   XX=            -22.5370   YY=            -19.7317   ZZ=            -25.4874
   XY=              0.0000   XZ=              0.0000   YZ=              0.0000

  Exact polarizability:  20.230  -0.000  35.538  -0.000  -0.000  44.374
 Approx polarizability:  29.469   0.000  56.845   0.000   0.000  69.601

                      1                      2                      3
                     B1                     B2                     B1
 Frequencies --    470.9382               523.7891               766.8834
 Red. masses --      1.9486                 3.2199                 2.2199
 Frc consts  --      0.2546                 0.5205                 0.7692
 IR Inten    --     12.2230                 0.1957                55.5593

                      4                      5                      6
                     B2                     A1                     A2
 Frequencies --    827.3607               854.3983               985.9616
 Red. masses --      3.1320                 1.5681                 1.4057
 Frc consts  --      1.2632                 0.6744                 0.8051
 IR Inten    --     34.9428                 0.0855                 0.0000

                      7                      8                      9
                     A1                     B2                     A1
 Frequencies --   1045.3344              1156.7377              1564.1177
 Red. masses --      2.4594                 2.2313                 5.9968
 Frc consts  --      1.5834                 1.7590                 8.6439
 IR Inten    --      3.7347                15.0841                11.3719

                     10                     11                     12
                     A1                     B2                     A1
 Frequencies --   1921.1796              3187.7679              3219.7882
 Red. masses --     10.8782                 1.0884                 1.1326
 Frc consts  --     23.6561                 6.5165                 6.9182
 IR Inten    --    700.9229                 1.7529                 1.1718

 - Thermochemistry -
 -------------------
 Temperature   298.150 Kelvin.  Pressure   1.00000 Atm.
 Atom     1 has atomic number  6 and mass  12.00000

 Molecular mass:    54.01056 amu.
 Principal axes and moments of inertia in atomic units:
                           1         2         3
     Eigenvalues --    55.60008 229.51428 285.11436
           X            0.00000   0.00000   1.00000
           Y            0.00000   1.00000  -0.00000
           Z            1.00000   0.00000   0.00000
 This molecule is an asymmetric top.
 Rotational symmetry number  2.
 Rotational temperatures (Kelvin)      1.55780     0.37738     0.30379
 Rotational constants (GHZ):          32.45933     7.86331     6.32989
 Zero-point vibrational energy      98837.0 (Joules/Mol)
                                   23.62261 (Kcal/Mol)
 Warning -- explicit consideration of   2 degrees of freedom as
           vibrations may cause significant error
 Vibrational temperatures:    677.58   753.62  1103.37  1190.39  1229.29
          (Kelvin)           1418.58  1504.00  1664.29  2250.42  2764.15
                             4586.49  4632.56

 Zero-point correction=                           0.037645 (Hartree/Particle)
 Thermal correction to Energy=                    0.041249
 Thermal correction to Enthalpy=                  0.042193
 Thermal correction to Gibbs Free Energy=         0.012982
 Sum of electronic and zero-point Energies=           -190.684866
 Sum of electronic and thermal Energies=              -190.681262
 Sum of electronic and thermal Enthalpies=            -190.680318
 Sum of electronic and thermal Free Energies=         -190.709529

                     E (Thermal)             CV                S
                      KCal/Mol        Cal/Mol-Kelvin    Cal/Mol-Kelvin
 Total                   25.884             11.386             61.481
 Electronic               0.000              0.000              0.000
 Translational            0.889              2.981             37.882
 Rotational               0.889              2.981             21.436
 Vibrational             24.107              5.425              2.163
 Vibration     1          0.828              1.315              0.735
 Vibration     2          0.879              1.197              0.601

 Optimization completed.
    -- Stationary point found.
 Normal termination of Gaussian 16 at Thu Jun 16 18:37:47 2022.
