 Gaussian 16, Revision B.01,

 ---------------------------------------
 # b3lyp/gen opt freq CPHF(Grid=OneStep)
 ---------------------------------------

 -----------------------------
 cyclopropenone, B3LYP/pcseg-2
 -----------------------------
 Symbolic Z-matrix:
 Charge =  0 Multiplicity = 1

 SCF Done:  E(RB3LYP) =  -190.722511179     A.U. after   12 cycles
 Optimization completed.
    -- Stationary point found.
 Normal termination of Gaussian 16 at Fri Sep 29 09:26:08 2023.

 ------------------------------------------------------------------
 #N Geom=AllCheck Guess=TCheck SCRF=Check GenChk RB3LYP/ChkBas Freq
 ------------------------------------------------------------------

 Structure from the checkpoint file:  "c3h2o.chk"
 -----------------------------
 cyclopropenone, B3LYP/pcseg-2
 -----------------------------
 Charge =  0 Multiplicity = 1

 SCF Done:  E(RB3LYP) =  -190.722511179     A.U. after    1 cycles

  Exact polarizability:  20.231   0.000  35.538   0.000  -0.000  44.374
 Approx polarizability:  29.469   0.000  56.845   0.000  -0.000  69.601

                      1                      2                      3
                     B1                     B2                     B1
 Frequencies --    470.9369               523.7866               766.8826
 Red. masses --      1.9486                 3.2198                 2.2200
 Frc consts  --      0.2546                 0.5205                 0.7692
 IR Inten    --     12.2232                 0.1957                55.5600

                      4                      5                      6
                     B2                     A1                     A2
 Frequencies --    827.3558               854.3948               985.9607
 Red. masses --      3.1320                 1.5681                 1.4057
 Frc consts  --      1.2632                 0.6744                 0.8051
 IR Inten    --     34.9459                 0.0854                 0.0000

                      7                      8                      9
                     A1                     B2                     A1
 Frequencies --   1045.3330              1156.7372              1564.1127
 Red. masses --      2.4595                 2.2313                 5.9968
 Frc consts  --      1.5834                 1.7590                 8.6439
 IR Inten    --      3.7347                15.0839                11.3721

                     10                     11                     12
                     A1                     B2                     A1
 Frequencies --   1921.1895              3187.7703              3219.7911
 Red. masses --     10.8782                 1.0884                 1.1326
 Frc consts  --     23.6564                 6.5165                 6.9182
 IR Inten    --    700.9212                 1.7534                 1.1720

 - Thermochemistry -
 -------------------
 Temperature   298.150 Kelvin.  Pressure   1.00000 Atm.
 Atom     1 has atomic number  6 and mass  12.00000

 Molecular mass:    54.01056 amu.
 Principal axes and moments of inertia in atomic units:
                           1         2         3
     Eigenvalues --    55.60013 229.51421 285.11434
           X            0.00000   0.00000   1.00000
           Y            0.00000   1.00000   0.00000
           Z            1.00000   0.00000   0.00000
 This molecule is an asymmetric top.
 Rotational symmetry number  2.
 Rotational temperatures (Kelvin)      1.55780     0.37738     0.30379
 Rotational constants (GHZ):          32.45930     7.86331     6.32989
 Zero-point vibrational energy      98837.0 (Joules/Mol)
                                   23.62260 (Kcal/Mol)
 Warning -- explicit consideration of   2 degrees of freedom as
           vibrations may cause significant error
 Vibrational temperatures:    677.57   753.61  1103.37  1190.38  1229.28
          (Kelvin)           1418.58  1504.00  1664.29  2250.41  2764.16
                             4586.49  4632.56

 Zero-point correction=                           0.037645 (Hartree/Particle)
 Thermal correction to Energy=                    0.041249
 Thermal correction to Enthalpy=                  0.042193
 Thermal correction to Gibbs Free Energy=         0.012982
 Sum of electronic and zero-point Energies=           -190.684866
 Sum of electronic and thermal Energies=              -190.681262
 Sum of electronic and thermal Enthalpies=            -190.680318
 Sum of electronic and thermal Free Energies=         -190.709529

                     E (Thermal)             CV                S
                      KCal/Mol        Cal/Mol-Kelvin    Cal/Mol-Kelvin
 Total                   25.884             11.386             61.481
 Electronic               0.000              0.000              0.000
 Translational            0.889              2.981             37.882
 Rotational               0.889              2.981             21.436
 Vibrational             24.107              5.425              2.163
 Vibration     1          0.828              1.315              0.735
 Vibration     2          0.879              1.197              0.601

 Optimization completed.
    -- Stationary point found.
 Normal termination of Gaussian 16 at Fri Sep 29 09:27:19 2023.
 Gaussian 16:  ES64L-G16RevB.01 20-Dec-2017

 ---------------------------------
 # rohf/gen geom=check guess=check
 ---------------------------------

 --------------------------------
 cyclopropenone, ROHF/cc-pVTZ-F12
 --------------------------------
 Structure from the checkpoint file:  "c3h2o.chk"
 Charge =  0 Multiplicity = 1

                         Standard orientation:
 ---------------------------------------------------------------------
 Center     Atomic      Atomic             Coordinates (Angstroms)
 Number     Number       Type             X           Y           Z
 ---------------------------------------------------------------------
      1          6           0        0.000000    0.000000    0.332236
      2          8           0        0.000000    0.000000    1.532432
      3          6           0        0.000000    0.669548   -0.927589
      4          6           0       -0.000000   -0.669548   -0.927589
      5          1           0        0.000000    1.544863   -1.560901
      6          1           0       -0.000000   -1.544863   -1.560901
 ---------------------------------------------------------------------

 SCF Done:  E(ROHF) =  -189.616119916     A.U. after   12 cycles

 The electronic state is 1-A1.
 Alpha  occ. eigenvalues --  -20.52793 -11.35592 -11.29774 -11.29609  -1.37963
 Alpha  occ. eigenvalues --   -1.21795  -0.82215  -0.79284  -0.67431  -0.60746
 Alpha  occ. eigenvalues --   -0.58256  -0.55693  -0.42071  -0.39319
 Alpha virt. eigenvalues --    0.03368   0.04449   0.06961   0.06968   0.06973
 Alpha virt. eigenvalues --    0.09143   0.09225   0.09846   0.11167   0.12315
 Alpha virt. eigenvalues --    0.14157   0.17096   0.17421   0.19807   0.20522

 Mulliken charges and spin densities:
               1          2
     1  C    0.472246   0.000000
     2  O   -0.638655   0.000000
     3  C   -0.112972   0.000000
     4  C   -0.112972   0.000000
     5  H    0.196176   0.000000
     6  H    0.196176   0.000000
 Sum of Mulliken charges =  -0.00000   0.00000

 Dipole moment (field-independent basis, Debye):
    X=             -0.0000    Y=              0.0000    Z=             -4.9588  Tot=              4.9588
 Quadrupole moment (field-independent basis, Debye-Ang):
   XX=            -22.7796   YY=            -19.1766   ZZ=            -25.8345
   XY=              0.0000   XZ=              0.0000   YZ=              0.0000

 Normal termination of Gaussian 16 at Fri Sep 29 09:27:50 2023.
