 Gaussian 16, Revision B.01,

 ---------------------------------------
 # b3lyp/gen opt freq CPHF(Grid=OneStep)
 ---------------------------------------

 ----------------------------
 cyclopropenyl, B3LYP/pcseg-2
 ----------------------------
 Symbolic Z-matrix:
 Charge =  0 Multiplicity = 2

 SCF Done:  E(UB3LYP) =  -116.000687514     A.U. after   14 cycles
 Optimization completed.
    -- Stationary point found.
 Normal termination of Gaussian 16 at Sat Sep 30 16:27:03 2023.

 ------------------------------------------------------------------
 #N Geom=AllCheck Guess=TCheck SCRF=Check GenChk UB3LYP/ChkBas Freq
 ------------------------------------------------------------------

 Structure from the checkpoint file:  "c3h3.chk"
 ----------------------------
 cyclopropenyl, B3LYP/pcseg-2
 ----------------------------
 Charge =  0 Multiplicity = 2

 SCF Done:  E(UB3LYP) =  -116.000687514     A.U. after    1 cycles

  Exact polarizability:  23.261   1.249  37.542   0.000  -0.000  35.625
 Approx polarizability:  31.257   1.340  50.296   0.000   0.000  57.126

                      1                      2                      3
                     A'                     A"                     A"
 Frequencies --    614.0750               691.7909               890.2279
 Red. masses --      1.1301                 2.5688                 1.4506
 Frc consts  --      0.2511                 0.7243                 0.6773
 IR Inten    --     73.1565                40.3085                 0.0024

                      4                      5                      6
                     A'                     A'                     A"
 Frequencies --    918.2548               970.6293               984.0046
 Red. masses --      1.0931                 1.2891                 1.3656
 Frc consts  --      0.5431                 0.7155                 0.7791
 IR Inten    --      4.3840                21.5936                 9.7564

                      7                      8                      9
                     A"                     A'                     A'
 Frequencies --   1040.7711              1234.5739              1660.7809
 Red. masses --      1.4930                 5.7247                 5.4077
 Frc consts  --      0.9529                 5.1409                 8.7879
 IR Inten    --     21.1882                 7.6676                 0.5894

                     10                     11                     12
                     A'                     A"                     A'
 Frequencies --   3064.2238              3244.4912              3288.2706
 Red. masses --      1.0889                 1.0819                 1.1385
 Frc consts  --      6.0238                 6.7100                 7.2527
 IR Inten    --     52.7072                 2.8267                 0.2367

 - Thermochemistry -
 -------------------
 Temperature   298.150 Kelvin.  Pressure   1.00000 Atm.
 Atom     1 has atomic number  6 and mass  12.00000

 Molecular mass:    39.02348 amu.
 Principal axes and moments of inertia in atomic units:
                           1         2         3
     Eigenvalues --    56.04586  67.15120 119.81005
           X            0.07220   0.00000   0.99739
           Y            0.99739   0.00000  -0.07220
           Z            0.00000   1.00000   0.00000
 This molecule is an asymmetric top.
 Rotational symmetry number  1.
 Rotational temperatures (Kelvin)      1.54541     1.28983     0.72293
 Rotational constants (GHZ):          32.20115    26.87578    15.06335
 Zero-point vibrational energy     111265.2 (Joules/Mol)
                                   26.59303 (Kcal/Mol)
 Warning -- explicit consideration of   1 degrees of freedom as
           vibrations may cause significant error
 Vibrational temperatures:    883.52   995.33  1280.84  1321.16  1396.52
          (Kelvin)           1415.76  1497.44  1776.28  2389.49  4408.73
                             4668.10  4731.09

 Zero-point correction=                           0.042379 (Hartree/Particle)
 Thermal correction to Energy=                    0.045715
 Thermal correction to Enthalpy=                  0.046659
 Thermal correction to Gibbs Free Energy=         0.017974
 Sum of electronic and zero-point Energies=           -115.958309
 Sum of electronic and thermal Energies=              -115.954972
 Sum of electronic and thermal Enthalpies=            -115.954028
 Sum of electronic and thermal Free Energies=         -115.982713

                     E (Thermal)             CV                S
                      KCal/Mol        Cal/Mol-Kelvin    Cal/Mol-Kelvin
 Total                   28.687             10.164             60.372
 Electronic               0.000              0.000              1.377
 Translational            0.889              2.981             36.913
 Rotational               0.889              2.981             20.739
 Vibrational             26.909              4.202              1.343
 Vibration     1          0.973              1.002              0.426

 Optimization completed.
    -- Stationary point found.
 Normal termination of Gaussian 16 at Sat Sep 30 16:29:05 2023.
 Gaussian 16:  ES64L-G16RevB.01 20-Dec-2017

 ---------------------------------
 # rohf/gen geom=check guess=check
 ---------------------------------

 -------------------------------
 cyclopropenyl, ROHF/cc-pVTZ-F12
 -------------------------------
 Structure from the checkpoint file:  "c3h3.chk"
 Charge =  0 Multiplicity = 2

                         Standard orientation:
 ---------------------------------------------------------------------
 Center     Atomic      Atomic             Coordinates (Angstroms)
 Number     Number       Type             X           Y           Z
 ---------------------------------------------------------------------
      1          6           0       -0.035235    0.882901   -0.000000
      2          1           0        0.724268    1.661902    0.000000
      3          6           0       -0.035235   -0.416567    0.653775
      4          6           0       -0.035235   -0.416567   -0.653775
      5          1           0       -0.045020   -0.980252    1.569006
      6          1           0       -0.045020   -0.980252   -1.569006
 ---------------------------------------------------------------------

 SCF Done:  E(ROHF) =  -115.238299516     A.U. after   15 cycles

 The electronic state is 2-A'.
 Alpha  occ. eigenvalues --  -11.25753 -11.25553 -11.23634  -1.17420  -0.78221
 Alpha  occ. eigenvalues --   -0.77956  -0.68222  -0.51652  -0.44358  -0.44033
 Alpha  occ. eigenvalues --   -0.04466
 Alpha virt. eigenvalues --    0.05013   0.05041   0.05987   0.08001   0.08541
 Alpha virt. eigenvalues --    0.09785   0.09867   0.10985   0.12899   0.12975
 Alpha virt. eigenvalues --    0.16831   0.18225   0.18758   0.22813   0.25531

 Mulliken charges and spin densities:
               1          2
     1  C   -0.124580   0.837398
     2  H    0.117184   0.034861
     3  C   -0.189702   0.062224
     4  C   -0.189702   0.062224
     5  H    0.193400   0.001646
     6  H    0.193400   0.001646
 Sum of Mulliken charges =  -0.00000   1.00000

 Dipole moment (field-independent basis, Debye):
    X=              0.5955    Y=             -1.2003    Z=             -0.0000  Tot=              1.3399
 Quadrupole moment (field-independent basis, Debye-Ang):
   XX=            -19.7605   YY=            -18.5295   ZZ=            -15.6134
   XY=              1.3156   XZ=              0.0000   YZ=              0.0000

 Normal termination of Gaussian 16 at Sat Sep 30 16:29:20 2023.
