 Gaussian 16, Revision B.01,
 Gaussian 16:  ES64L-G16RevB.01 20-Dec-2017

 --------------------
 # b3lyp/gen opt freq
 --------------------

 ----------------------------
 cyclopropenyl, B3LYP/pcseg-2
 ----------------------------
 Symbolic Z-matrix:
 Charge =  0 Multiplicity = 2

 SCF Done:  E(UB3LYP) =  -116.000587270     A.U. after   14 cycles
 SCF Done:  E(UB3LYP) =  -116.000675844     A.U. after    9 cycles
 SCF Done:  E(UB3LYP) =  -116.000686497     A.U. after    8 cycles
 SCF Done:  E(UB3LYP) =  -116.000687515     A.U. after    8 cycles
 Optimization completed.
    -- Stationary point found.
 Normal termination of Gaussian 16 at Fri Jun 17 13:42:36 2022.

 ------------------------------------------------------------------
 #N Geom=AllCheck Guess=TCheck SCRF=Check GenChk UB3LYP/ChkBas Freq
 ------------------------------------------------------------------

 Structure from the checkpoint file:  "/wrk/irikura/Gau-31128.chk"
 ----------------------------
 cyclopropenyl, B3LYP/pcseg-2
 ----------------------------
 Charge =  0 Multiplicity = 2

                         Standard orientation:
 ---------------------------------------------------------------------
 Center     Atomic      Atomic             Coordinates (Angstroms)
 Number     Number       Type             X           Y           Z
 ---------------------------------------------------------------------
      1          6           0       -0.035235    0.882901   -0.000000
      2          1           0        0.724268    1.661902   -0.000000
      3          6           0       -0.035235   -0.416567    0.653775
      4          6           0       -0.035235   -0.416567   -0.653775
      5          1           0       -0.045020   -0.980252    1.569006
      6          1           0       -0.045020   -0.980252   -1.569006
 ---------------------------------------------------------------------

 SCF Done:  E(UB3LYP) =  -116.000687515     A.U. after    1 cycles

 The electronic state is 2-A'.
 Alpha  occ. eigenvalues --  -10.20927 -10.20813 -10.19087  -0.90003  -0.59294
 Alpha  occ. eigenvalues --   -0.58453  -0.51765  -0.40194  -0.34741  -0.32362
 Alpha  occ. eigenvalues --   -0.16768
 Alpha virt. eigenvalues --   -0.02748   0.03367   0.04093   0.04764   0.11348
 Alpha virt. eigenvalues --    0.13322   0.13857   0.14630   0.16067   0.21277
 Alpha virt. eigenvalues --    0.24499   0.25614   0.27109   0.28524   0.32398

  Beta  occ. eigenvalues --  -10.20767 -10.20656 -10.17785  -0.89094  -0.58115
  Beta  occ. eigenvalues --   -0.57628  -0.50709  -0.37768  -0.33062  -0.31603
  Beta virt. eigenvalues --   -0.03658  -0.01778   0.03401   0.04186   0.05109
  Beta virt. eigenvalues --    0.11827   0.13661   0.14227   0.14876   0.16303
  Beta virt. eigenvalues --    0.23511   0.24942   0.26026   0.27636   0.29382

 Mulliken charges and spin densities:
               1          2
     1  C   -0.150129   0.799380
     2  H    0.050659   0.033116
     3  C   -0.018907   0.089828
     4  C   -0.018907   0.089828
     5  H    0.068643  -0.006075
     6  H    0.068643  -0.006075
 Sum of Mulliken charges =  -0.00000   1.00000

 Dipole moment (field-independent basis, Debye):
    X=              0.6623    Y=             -1.3658    Z=             -0.0000  Tot=              1.5179
 Quadrupole moment (field-independent basis, Debye-Ang):
   XX=            -19.5294   YY=            -18.7480   ZZ=            -15.8460
   XY=              1.4080   XZ=              0.0000   YZ=              0.0000

  Exact polarizability:  23.261   1.249  37.540   0.000  -0.000  35.625
 Approx polarizability:  31.257   1.340  50.296   0.000   0.000  57.126

                      1                      2                      3
                     A'                     A"                     A"
 Frequencies --    614.0767               691.7918               890.2262
 Red. masses --      1.1301                 2.5688                 1.4506
 Frc consts  --      0.2511                 0.7243                 0.6773
 IR Inten    --     73.1617                40.3070                 0.0024

                      4                      5                      6
                     A'                     A'                     A"
 Frequencies --    918.2544               970.6271               984.0039
 Red. masses --      1.0931                 1.2891                 1.3656
 Frc consts  --      0.5431                 0.7155                 0.7791
 IR Inten    --      4.3835                21.6003                 9.7567

                      7                      8                      9
                     A"                     A'                     A'
 Frequencies --   1040.7712              1234.5697              1660.7862
 Red. masses --      1.4930                 5.7245                 5.4077
 Frc consts  --      0.9529                 5.1406                 8.7879
 IR Inten    --     21.1884                 7.6687                 0.5885

                     10                     11                     12
                     A'                     A"                     A'
 Frequencies --   3064.2331              3244.4948              3288.2739
 Red. masses --      1.0889                 1.0819                 1.1385
 Frc consts  --      6.0238                 6.7100                 7.2527
 IR Inten    --     52.6863                 2.8269                 0.2366

 - Thermochemistry -
 -------------------
 Temperature   298.150 Kelvin.  Pressure   1.00000 Atm.
 Atom     1 has atomic number  6 and mass  12.00000

 Molecular mass:    39.02348 amu.
 Principal axes and moments of inertia in atomic units:
                           1         2         3
     Eigenvalues --    56.04586  67.15121 119.81006
           X            0.07220   0.00000   0.99739
           Y            0.99739   0.00000  -0.07220
           Z           -0.00000   1.00000  -0.00000
 This molecule is an asymmetric top.
 Rotational symmetry number  1.
 Rotational temperatures (Kelvin)      1.54541     1.28983     0.72293
 Rotational constants (GHZ):          32.20115    26.87578    15.06335
 Zero-point vibrational energy     111265.3 (Joules/Mol)
                                   26.59305 (Kcal/Mol)
 Warning -- explicit consideration of   1 degrees of freedom as
           vibrations may cause significant error
 Vibrational temperatures:    883.52   995.33  1280.84  1321.16  1396.52
          (Kelvin)           1415.76  1497.44  1776.27  2389.50  4408.75
                             4668.10  4731.09

 Zero-point correction=                           0.042379 (Hartree/Particle)
 Thermal correction to Energy=                    0.045715
 Thermal correction to Enthalpy=                  0.046659
 Thermal correction to Gibbs Free Energy=         0.017974
 Sum of electronic and zero-point Energies=           -115.958309
 Sum of electronic and thermal Energies=              -115.954972
 Sum of electronic and thermal Enthalpies=            -115.954028
 Sum of electronic and thermal Free Energies=         -115.982713

                     E (Thermal)             CV                S
                      KCal/Mol        Cal/Mol-Kelvin    Cal/Mol-Kelvin
 Total                   28.687             10.164             60.372
 Electronic               0.000              0.000              1.377
 Translational            0.889              2.981             36.913
 Rotational               0.889              2.981             20.739
 Vibrational             26.909              4.202              1.343
 Vibration     1          0.973              1.002              0.426

 Optimization completed.
    -- Stationary point found.
 Normal termination of Gaussian 16 at Fri Jun 17 13:43:06 2022.
