 Gaussian 16, Revision B.01,
 Gaussian 16:  ES64L-G16RevB.01 20-Dec-2017

 --------------------
 # b3lyp/gen opt freq
 --------------------

 --------------------
 allyl, B3LYP/pcseg-2
 --------------------
 Symbolic Z-matrix:
 Charge =  0 Multiplicity = 2

 SCF Done:  E(UB3LYP) =  -117.312983699     A.U. after   13 cycles
 SCF Done:  E(UB3LYP) =  -117.313034853     A.U. after    9 cycles
 Optimization completed.
    -- Stationary point found.
 Normal termination of Gaussian 16 at Wed Jun 15 11:04:22 2022.

 ------------------------------------------------------------------
 #N Geom=AllCheck Guess=TCheck SCRF=Check GenChk UB3LYP/ChkBas Freq
 ------------------------------------------------------------------

 Structure from the checkpoint file:  "/wrk/irikura/Gau-7418.chk"
 --------------------
 allyl, B3LYP/pcseg-2
 --------------------
 Charge =  0 Multiplicity = 2

                         Standard orientation:
 ---------------------------------------------------------------------
 Center     Atomic      Atomic             Coordinates (Angstroms)
 Number     Number       Type             X           Y           Z
 ---------------------------------------------------------------------
      1          6           0        0.000000    0.000000    0.440851
      2          1           0        0.000000    0.000000    1.526519
      3          6           0       -0.000000    1.224165   -0.195286
      4          6           0       -0.000000   -1.224165   -0.195286
      5          1           0        0.000000    2.149470    0.361167
      6          1           0       -0.000000   -2.149470    0.361167
      7          1           0       -0.000000    1.292840   -1.275260
      8          1           0       -0.000000   -1.292840   -1.275260
 ---------------------------------------------------------------------

 SCF Done:  E(UB3LYP) =  -117.313034853     A.U. after    1 cycles

 The electronic state is 2-A2.
 Alpha  occ. eigenvalues --  -10.18081 -10.18054 -10.17976  -0.80103  -0.68747
 Alpha  occ. eigenvalues --   -0.56253  -0.48554  -0.44390  -0.39221  -0.36624
 Alpha  occ. eigenvalues --   -0.33136  -0.20601
 Alpha virt. eigenvalues --    0.02071   0.02465   0.04302   0.04881   0.08720
 Alpha virt. eigenvalues --    0.09685   0.15012   0.16619   0.18087   0.19827
 Alpha virt. eigenvalues --    0.21202   0.24669   0.25272   0.26649   0.28498

  Beta  occ. eigenvalues --  -10.18333 -10.17126 -10.17124  -0.79057  -0.66312
  Beta  occ. eigenvalues --   -0.55588  -0.48091  -0.43821  -0.38653  -0.36362
  Beta  occ. eigenvalues --   -0.30034
  Beta virt. eigenvalues --   -0.08923   0.02591   0.03900   0.04364   0.05088
  Beta virt. eigenvalues --    0.08787   0.09779   0.14997   0.18189   0.18216
  Beta virt. eigenvalues --    0.20441   0.23453   0.24776   0.25378   0.27448

 Mulliken charges and spin densities:
               1          2
     1  C   -0.017451  -0.257130
     2  H    0.031490   0.008079
     3  C   -0.107674   0.675975
     4  C   -0.107674   0.675975
     5  H    0.054061  -0.027145
     6  H    0.054061  -0.027145
     7  H    0.046594  -0.024305
     8  H    0.046594  -0.024305
 Sum of Mulliken charges =  -0.00000   1.00000

 Dipole moment (field-independent basis, Debye):
    X=              0.0000    Y=              0.0000    Z=              0.0613  Tot=              0.0613
 Quadrupole moment (field-independent basis, Debye-Ang):
   XX=            -22.5002   YY=            -18.2710   ZZ=            -17.9076
   XY=              0.0000   XZ=             -0.0000   YZ=             -0.0000

  Exact polarizability:  25.202   0.000  56.848  -0.000   0.000  34.399
 Approx polarizability:  34.229   0.000  80.359   0.000  -0.000  46.501

                      1                      2                      3
                     A1                     B1                     A2
 Frequencies --    430.3489               530.6256               551.1735
 Red. masses --      1.8838                 1.3364                 1.0181
 Frc consts  --      0.2056                 0.2217                 0.1822
 IR Inten    --      0.0854                18.7720                 0.0000

                      4                      5                      6
                     A2                     B1                     B2
 Frequencies --    800.6910               826.2530               940.1780
 Red. masses --      1.3066                 1.4880                 1.1616
 Frc consts  --      0.4935                 0.5985                 0.6050
 IR Inten    --      0.0000                82.4218                 0.0060

                      7                      8                      9
                     B1                     A1                     B2
 Frequencies --   1016.8169              1040.3149              1210.7847
 Red. masses --      1.1651                 1.8908                 1.8597
 Frc consts  --      0.7097                 1.2057                 1.6063
 IR Inten    --     20.9325                 0.0413                 0.6721

                     10                     11                     12
                     A1                     B2                     B2
 Frequencies --   1274.7496              1430.1462              1515.7920
 Red. masses --      2.2230                 1.2923                 1.6067
 Frc consts  --      2.1283                 1.5573                 2.1750
 IR Inten    --      1.0519                 5.5853                 1.5578

                     13                     14                     15
                     A1                     A1                     B2
 Frequencies --   1522.7428              3134.1055              3142.0617
 Red. masses --      1.3422                 1.0866                 1.0525
 Frc consts  --      1.8336                 6.2885                 6.1222
 IR Inten    --      3.0581                11.7285                 6.9725

                     16                     17                     18
                     A1                     B2                     A1
 Frequencies --   3147.8462              3239.5284              3242.1393
 Red. masses --      1.0578                 1.1163                 1.1161
 Frc consts  --      6.1757                 6.9024                 6.9122
 IR Inten    --      5.4251                 4.4099                15.3554

 - Thermochemistry -
 -------------------
 Temperature   298.150 Kelvin.  Pressure   1.00000 Atm.
 Atom     1 has atomic number  6 and mass  12.00000

 Molecular mass:    41.03913 amu.
 Principal axes and moments of inertia in atomic units:
                           1         2         3
     Eigenvalues --    32.62075 173.72417 206.34492
           X           -0.00000   0.00000   1.00000
           Y            1.00000   0.00000   0.00000
           Z           -0.00000   1.00000   0.00000
 This molecule is an asymmetric top.
 Rotational symmetry number  2.
 Rotational temperatures (Kelvin)      2.65518     0.49857     0.41975
 Rotational constants (GHZ):          55.32494    10.38854     8.74624
 Zero-point vibrational energy     173436.4 (Joules/Mol)
                                   41.45229 (Kcal/Mol)
 Warning -- explicit consideration of   3 degrees of freedom as
           vibrations may cause significant error
 Vibrational temperatures:    619.18   763.45   793.02  1152.02  1188.79
          (Kelvin)           1352.71  1462.97  1496.78  1742.05  1834.08
                             2057.66  2180.89  2190.89  4509.28  4520.73
                             4529.05  4660.96  4664.72

 Zero-point correction=                           0.066058 (Hartree/Particle)
 Thermal correction to Energy=                    0.069869
 Thermal correction to Enthalpy=                  0.070813
 Thermal correction to Gibbs Free Energy=         0.041583
 Sum of electronic and zero-point Energies=           -117.246976
 Sum of electronic and thermal Energies=              -117.243166
 Sum of electronic and thermal Enthalpies=            -117.242222
 Sum of electronic and thermal Free Energies=         -117.271452

                     E (Thermal)             CV                S
                      KCal/Mol        Cal/Mol-Kelvin    Cal/Mol-Kelvin
 Total                   43.844             12.680             61.521
 Electronic               0.000              0.000              1.377
 Translational            0.889              2.981             37.063
 Rotational               0.889              2.981             20.308
 Vibrational             42.066              6.718              2.772
 Vibration     1          0.792              1.404              0.858
 Vibration     2          0.886              1.182              0.586
 Vibration     3          0.906              1.137              0.542

 Optimization completed.
    -- Stationary point found.
 Normal termination of Gaussian 16 at Wed Jun 15 11:05:00 2022.
