 Gaussian 16, Revision B.01,

 ---------------------------------------
 # b3lyp/gen opt freq CPHF(Grid=OneStep)
 ---------------------------------------

 --------------------
 allyl, B3LYP/pcseg-2
 --------------------
 Symbolic Z-matrix:
 Charge =  0 Multiplicity = 2

 SCF Done:  E(UB3LYP) =  -117.313034852     A.U. after   13 cycles
 Optimization completed.
    -- Stationary point found.
 Normal termination of Gaussian 16 at Sat Sep 30 01:06:01 2023.

 ------------------------------------------------------------------
 #N Geom=AllCheck Guess=TCheck SCRF=Check GenChk UB3LYP/ChkBas Freq
 ------------------------------------------------------------------

 Structure from the checkpoint file:  "c3h5.chk"
 --------------------
 allyl, B3LYP/pcseg-2
 --------------------
 Charge =  0 Multiplicity = 2

 SCF Done:  E(UB3LYP) =  -117.313034852     A.U. after    1 cycles

  Exact polarizability:  25.202   0.000  56.849  -0.000   0.000  34.400
 Approx polarizability:  34.229   0.000  80.359   0.000   0.000  46.501

                      1                      2                      3
                     A1                     B1                     A2
 Frequencies --    430.3479               530.6277               551.1623
 Red. masses --      1.8838                 1.3364                 1.0181
 Frc consts  --      0.2056                 0.2217                 0.1822
 IR Inten    --      0.0854                18.7704                 0.0000

                      4                      5                      6
                     A2                     B1                     B2
 Frequencies --    800.6916               826.2525               940.1781
 Red. masses --      1.3066                 1.4880                 1.1616
 Frc consts  --      0.4935                 0.5985                 0.6050
 IR Inten    --      0.0000                82.4255                 0.0060

                      7                      8                      9
                     B1                     A1                     B2
 Frequencies --   1016.8145              1040.3153              1210.7853
 Red. masses --      1.1651                 1.8908                 1.8597
 Frc consts  --      0.7097                 1.2057                 1.6063
 IR Inten    --     20.9349                 0.0413                 0.6723

                     10                     11                     12
                     A1                     B2                     B2
 Frequencies --   1274.7505              1430.1472              1515.7922
 Red. masses --      2.2230                 1.2923                 1.6067
 Frc consts  --      2.1283                 1.5573                 2.1750
 IR Inten    --      1.0523                 5.5843                 1.5573

                     13                     14                     15
                     A1                     A1                     B2
 Frequencies --   1522.7425              3134.1111              3142.0642
 Red. masses --      1.3422                 1.0866                 1.0525
 Frc consts  --      1.8336                 6.2885                 6.1222
 IR Inten    --      3.0576                11.7286                 6.9742

                     16                     17                     18
                     A1                     B2                     A1
 Frequencies --   3147.8482              3239.5314              3242.1412
 Red. masses --      1.0578                 1.1163                 1.1161
 Frc consts  --      6.1758                 6.9024                 6.9122
 IR Inten    --      5.4255                 4.4079                15.3548

 - Thermochemistry -
 -------------------
 Temperature   298.150 Kelvin.  Pressure   1.00000 Atm.
 Atom     1 has atomic number  6 and mass  12.00000

 Molecular mass:    41.03913 amu.
 Principal axes and moments of inertia in atomic units:
                           1         2         3
     Eigenvalues --    32.62074 173.72408 206.34482
           X            0.00000   0.00000   1.00000
           Y            1.00000   0.00000  -0.00000
           Z            0.00000   1.00000   0.00000
 This molecule is an asymmetric top.
 Rotational symmetry number  2.
 Rotational temperatures (Kelvin)      2.65518     0.49857     0.41975
 Rotational constants (GHZ):          55.32496    10.38855     8.74624
 Zero-point vibrational energy     173436.4 (Joules/Mol)
                                   41.45230 (Kcal/Mol)
 Warning -- explicit consideration of   3 degrees of freedom as
           vibrations may cause significant error
 Vibrational temperatures:    619.17   763.45   793.00  1152.02  1188.79
          (Kelvin)           1352.71  1462.97  1496.78  1742.05  1834.08
                             2057.66  2180.89  2190.89  4509.29  4520.73
                             4529.05  4660.96  4664.72

 Zero-point correction=                           0.066058 (Hartree/Particle)
 Thermal correction to Energy=                    0.069869
 Thermal correction to Enthalpy=                  0.070813
 Thermal correction to Gibbs Free Energy=         0.041583
 Sum of electronic and zero-point Energies=           -117.246976
 Sum of electronic and thermal Energies=              -117.243166
 Sum of electronic and thermal Enthalpies=            -117.242221
 Sum of electronic and thermal Free Energies=         -117.271452

                     E (Thermal)             CV                S
                      KCal/Mol        Cal/Mol-Kelvin    Cal/Mol-Kelvin
 Total                   43.844             12.680             61.521
 Electronic               0.000              0.000              1.377
 Translational            0.889              2.981             37.063
 Rotational               0.889              2.981             20.308
 Vibrational             42.066              6.718              2.772
 Vibration     1          0.792              1.404              0.858
 Vibration     2          0.886              1.182              0.586
 Vibration     3          0.906              1.137              0.542

 Optimization completed.
    -- Stationary point found.
 Normal termination of Gaussian 16 at Sat Sep 30 01:08:44 2023.
 Gaussian 16:  ES64L-G16RevB.01 20-Dec-2017

 ---------------------------------
 # rohf/gen geom=check guess=check
 ---------------------------------

 -----------------------
 allyl, ROHF/cc-pVTZ-F12
 -----------------------
 Structure from the checkpoint file:  "c3h5.chk"
 Charge =  0 Multiplicity = 2

                         Standard orientation:
 ---------------------------------------------------------------------
 Center     Atomic      Atomic             Coordinates (Angstroms)
 Number     Number       Type             X           Y           Z
 ---------------------------------------------------------------------
      1          6           0       -0.000000    0.000000    0.440851
      2          1           0       -0.000000    0.000000    1.526519
      3          6           0       -0.000000    1.224165   -0.195286
      4          6           0       -0.000000   -1.224165   -0.195286
      5          1           0       -0.000000    2.149470    0.361167
      6          1           0       -0.000000   -2.149470    0.361167
      7          1           0       -0.000000    1.292840   -1.275260
      8          1           0       -0.000000   -1.292840   -1.275260
 ---------------------------------------------------------------------

 SCF Done:  E(ROHF) =  -116.495066832     A.U. after   11 cycles

 The electronic state is 2-A2.
 Alpha  occ. eigenvalues --  -11.23799 -11.23200 -11.23185  -1.06730  -0.90727
 Alpha  occ. eigenvalues --   -0.75730  -0.65339  -0.60224  -0.54112  -0.51067
 Alpha  occ. eigenvalues --   -0.39895  -0.07291
 Alpha virt. eigenvalues --    0.05323   0.05468   0.05773   0.07973   0.08530
 Alpha virt. eigenvalues --    0.08955   0.10793   0.10978   0.12680   0.12686
 Alpha virt. eigenvalues --    0.18592   0.19513   0.20151   0.20860   0.24838

 Mulliken charges and spin densities:
               1          2
     1  C   -0.119928   0.036736
     2  H    0.170909   0.000196
     3  C   -0.309421   0.459756
     4  C   -0.309421   0.459756
     5  H    0.147417   0.012615
     6  H    0.147417   0.012615
     7  H    0.136513   0.009162
     8  H    0.136513   0.009162
 Sum of Mulliken charges =  -0.00000   1.00000

 Dipole moment (field-independent basis, Debye):
    X=             -0.0000    Y=              0.0000    Z=              0.0299  Tot=              0.0299
 Quadrupole moment (field-independent basis, Debye-Ang):
   XX=            -22.9726   YY=            -18.0173   ZZ=            -17.7693
   XY=              0.0000   XZ=             -0.0000   YZ=             -0.0000

 Normal termination of Gaussian 16 at Sat Sep 30 01:09:12 2023.
