 Gaussian 16, Revision B.01,

 ---------------------------------------
 # b3lyp/gen opt freq CPHF(Grid=OneStep)
 ---------------------------------------

 ----------------------
 Propane, B3LYP/pcseg-2
 ----------------------
 Symbolic Z-matrix:
 Charge =  0 Multiplicity = 1

 SCF Done:  E(RB3LYP) =  -119.195838695     A.U. after   11 cycles
 Optimization completed.
    -- Stationary point found.
 Normal termination of Gaussian 16 at Sun Oct  1 04:43:12 2023.

 ------------------------------------------------------------------
 #N Geom=AllCheck Guess=TCheck SCRF=Check GenChk RB3LYP/ChkBas Freq
 ------------------------------------------------------------------

 Structure from the checkpoint file:  "c3h8.chk"
 ----------------------
 Propane, B3LYP/pcseg-2
 ----------------------
 Charge =  0 Multiplicity = 1

 SCF Done:  E(RB3LYP) =  -119.195838695     A.U. after    1 cycles

  Exact polarizability:  36.988  -0.000  43.950   0.000   0.000  38.904
 Approx polarizability:  51.835   0.000  52.235  -0.000  -0.000  52.156

                      1                      2                      3
                     A2                     B1                     A1
 Frequencies --    221.1394               268.1520               367.3738
 Red. masses --      1.0275                 1.1358                 2.0529
 Frc consts  --      0.0296                 0.0481                 0.1632
 IR Inten    --      0.0000                 0.0002                 0.0411

                      4                      5                      6
                     B1                     A1                     A2
 Frequencies --    752.7228               870.3769               912.5851
 Red. masses --      1.0796                 2.6078                 1.1012
 Frc consts  --      0.3604                 1.1640                 0.5403
 IR Inten    --      2.9836                 0.7150                 0.0000

                      7                      8                      9
                     B2                     B2                     A1
 Frequencies --    933.3114              1055.4194              1177.7941
 Red. masses --      1.2065                 2.4965                 1.7832
 Frc consts  --      0.6192                 1.6384                 1.4574
 IR Inten    --      1.2675                 1.0176                 1.1251

                     10                     11                     12
                     B1                     A2                     B2
 Frequencies --   1215.4156              1318.1007              1370.0395
 Red. masses --      1.6658                 1.1243                 1.4185
 Frc consts  --      1.4499                 1.1509                 1.5687
 IR Inten    --      0.0683                 0.0000                 3.4388

                     13                     14                     15
                     B2                     A1                     A2
 Frequencies --   1403.9851              1422.1664              1489.7897
 Red. masses --      1.2499                 1.2294                 1.0382
 Frc consts  --      1.4516                 1.4651                 1.3576
 IR Inten    --      3.6385                 2.7534                 0.0000

                     16                     17                     18
                     A1                     B2                     B1
 Frequencies --   1491.0405              1496.4979              1506.5619
 Red. masses --      1.0428                 1.0509                 1.0407
 Frc consts  --      1.3659                 1.3867                 1.3917
 IR Inten    --      0.0300                 2.2039                14.2136

                     19                     20                     21
                     A1                     A1                     B2
 Frequencies --   1512.9009              3017.4034              3020.0480
 Red. masses --      1.0822                 1.0598                 1.0349
 Frc consts  --      1.4594                 5.6849                 5.5614
 IR Inten    --      6.0782                21.1209                36.5738

                     22                     23                     24
                     A1                     B1                     A2
 Frequencies --   3023.6694              3037.4726              3075.9175
 Red. masses --      1.0356                 1.1017                 1.1021
 Frc consts  --      5.5784                 5.9888                 6.1434
 IR Inten    --     28.5145                 3.9301                 0.0000

                     25                     26                     27
                     B2                     B1                     A1
 Frequencies --   3086.0573              3086.9621              3088.4776
 Red. masses --      1.1016                 1.1028                 1.1001
 Frc consts  --      6.1811                 6.1917                 6.1829
 IR Inten    --     30.1465                96.6343                52.2553

 - Thermochemistry -
 -------------------
 Temperature   298.150 Kelvin.  Pressure   1.00000 Atm.
 Atom     1 has atomic number  6 and mass  12.00000

 Molecular mass:    44.06260 amu.
 Principal axes and moments of inertia in atomic units:
                           1         2         3
     Eigenvalues --    60.86501 214.65711 242.20704
           X            0.00000   0.00000   1.00000
           Y            1.00000   0.00000  -0.00000
           Z            0.00000   1.00000   0.00000
 This molecule is an asymmetric top.
 Rotational symmetry number  2.
 Rotational temperatures (Kelvin)      1.42305     0.40350     0.35760
 Rotational constants (GHZ):          29.65154     8.40755     7.45123
 Zero-point vibrational energy     270483.9 (Joules/Mol)
                                   64.64721 (Kcal/Mol)
 Warning -- explicit consideration of   3 degrees of freedom as
           vibrations may cause significant error
 Vibrational temperatures:    318.17   385.81   528.57  1083.00  1252.28
          (Kelvin)           1313.01  1342.83  1518.51  1694.58  1748.71
                             1896.45  1971.18  2020.02  2046.18  2143.48
                             2145.27  2153.13  2167.61  2176.73  4341.37
                             4345.18  4350.39  4370.25  4425.56  4440.15
                             4441.45  4443.63

 Zero-point correction=                           0.103022 (Hartree/Particle)
 Thermal correction to Energy=                    0.107561
 Thermal correction to Enthalpy=                  0.108505
 Thermal correction to Gibbs Free Energy=         0.078011
 Sum of electronic and zero-point Energies=           -119.092817
 Sum of electronic and thermal Energies=              -119.088278
 Sum of electronic and thermal Enthalpies=            -119.087334
 Sum of electronic and thermal Free Energies=         -119.117828

                     E (Thermal)             CV                S
                      KCal/Mol        Cal/Mol-Kelvin    Cal/Mol-Kelvin
 Total                   67.495             14.825             64.180
 Electronic               0.000              0.000              0.000
 Translational            0.889              2.981             37.275
 Rotational               0.889              2.981             21.297
 Vibrational             65.718              8.864              5.608
 Vibration     1          0.648              1.809              1.950
 Vibration     2          0.673              1.732              1.608
 Vibration     3          0.740              1.539              1.091

 Optimization completed.
    -- Stationary point found.
 Normal termination of Gaussian 16 at Sun Oct  1 04:45:58 2023.
 Gaussian 16:  ES64L-G16RevB.01 20-Dec-2017

 ---------------------------------
 # rohf/gen geom=check guess=check
 ---------------------------------

 -------------------------
 Propane, ROHF/cc-pVTZ-F12
 -------------------------
 Structure from the checkpoint file:  "c3h8.chk"
 Charge =  0 Multiplicity = 1

                         Standard orientation:
 ---------------------------------------------------------------------
 Center     Atomic      Atomic             Coordinates (Angstroms)
 Number     Number       Type             X           Y           Z
 ---------------------------------------------------------------------
      1          6           0        0.000000    0.000000    0.584703
      2          6           0        0.000000    1.274055   -0.259160
      3          6           0       -0.000000   -1.274055   -0.259160
      4          1           0        0.873493   -0.000000    1.242062
      5          1           0       -0.873493    0.000000    1.242062
      6          1           0        0.000000    2.168464    0.365468
      7          1           0       -0.000000   -2.168464    0.365468
      8          1           0        0.880680    1.318697   -0.903339
      9          1           0       -0.880680    1.318697   -0.903339
     10          1           0       -0.880680   -1.318697   -0.903339
     11          1           0        0.880680   -1.318697   -0.903339
 ---------------------------------------------------------------------

 SCF Done:  E(ROHF) =  -118.314652987     A.U. after    9 cycles

 The electronic state is 1-A1.
 Alpha  occ. eigenvalues --  -11.21591 -11.20792 -11.20788  -1.05153  -0.92503
 Alpha  occ. eigenvalues --   -0.79990  -0.62293  -0.59667  -0.54990  -0.53070
 Alpha  occ. eigenvalues --   -0.47570  -0.47507  -0.46776
 Alpha virt. eigenvalues --    0.05233   0.05403   0.05773   0.07104   0.09318
 Alpha virt. eigenvalues --    0.09515   0.09746   0.10218   0.11204   0.12853
 Alpha virt. eigenvalues --    0.17524   0.17770   0.21731   0.22208   0.23970

 Mulliken charges and spin densities:
               1          2
     1  C   -0.091646   0.000000
     2  C   -0.267817   0.000000
     3  C   -0.267817   0.000000
     4  H    0.068493   0.000000
     5  H    0.068493   0.000000
     6  H    0.080608   0.000000
     7  H    0.080608   0.000000
     8  H    0.082269   0.000000
     9  H    0.082269   0.000000
    10  H    0.082269   0.000000
    11  H    0.082269   0.000000
 Sum of Mulliken charges =  -0.00000   0.00000

 Dipole moment (field-independent basis, Debye):
    X=             -0.0000    Y=             -0.0000    Z=              0.0835  Tot=              0.0835
 Quadrupole moment (field-independent basis, Debye-Ang):
   XX=            -21.5211   YY=            -22.4225   ZZ=            -22.0165
   XY=             -0.0000   XZ=              0.0000   YZ=              0.0000

 Normal termination of Gaussian 16 at Sun Oct  1 04:46:27 2023.
