 Gaussian 16, Revision B.01,
 Gaussian 16:  ES64L-G16RevB.01 20-Dec-2017

 --------------------
 # b3lyp/gen opt freq
 --------------------

 ----------------------
 Propane, B3LYP/pcseg-2
 ----------------------
 Symbolic Z-matrix:
 Charge =  0 Multiplicity = 1

 SCF Done:  E(RB3LYP) =  -119.195686697     A.U. after   11 cycles
 SCF Done:  E(RB3LYP) =  -119.195836899     A.U. after    8 cycles
 SCF Done:  E(RB3LYP) =  -119.195838695     A.U. after    6 cycles
 Optimization completed.
    -- Stationary point found.
 Normal termination of Gaussian 16 at Mon Feb  7 09:49:32 2022.

 ------------------------------------------------------------------
 #N Geom=AllCheck Guess=TCheck SCRF=Check GenChk RB3LYP/ChkBas Freq
 ------------------------------------------------------------------

 Structure from the checkpoint file:  "/wrk/irikura/Gau-11591.chk"
 ----------------------
 Propane, B3LYP/pcseg-2
 ----------------------
 Charge =  0 Multiplicity = 1

                         Standard orientation:
 ---------------------------------------------------------------------
 Center     Atomic      Atomic             Coordinates (Angstroms)
 Number     Number       Type             X           Y           Z
 ---------------------------------------------------------------------
      1          6           0       -0.000000    0.000000    0.584703
      2          6           0        0.000000    1.274055   -0.259160
      3          6           0       -0.000000   -1.274055   -0.259160
      4          1           0        0.873493   -0.000000    1.242062
      5          1           0       -0.873493    0.000000    1.242062
      6          1           0        0.000000    2.168464    0.365468
      7          1           0       -0.000000   -2.168464    0.365468
      8          1           0        0.880680    1.318697   -0.903339
      9          1           0       -0.880680    1.318697   -0.903339
     10          1           0       -0.880680   -1.318697   -0.903339
     11          1           0        0.880680   -1.318697   -0.903339
 ---------------------------------------------------------------------

 SCF Done:  E(RB3LYP) =  -119.195838695     A.U. after    1 cycles

 The electronic state is 1-A1.
 Alpha  occ. eigenvalues --  -10.16521 -10.15671 -10.15671  -0.78133  -0.68190
 Alpha  occ. eigenvalues --   -0.58604  -0.45916  -0.43870  -0.40077  -0.38314
 Alpha  occ. eigenvalues --   -0.34094  -0.33944  -0.33025
 Alpha virt. eigenvalues --    0.01591   0.04584   0.04987   0.05524   0.07941
 Alpha virt. eigenvalues --    0.09421   0.10137   0.11673   0.12861   0.16832
 Alpha virt. eigenvalues --    0.17882   0.18335   0.19517   0.22148   0.23860

 Mulliken charges:
               1
     1  C   -0.007015
     2  C   -0.074268
     3  C   -0.074268
     4  H    0.014031
     5  H    0.014031
     6  H    0.029946
     7  H    0.029946
     8  H    0.016900
     9  H    0.016900
    10  H    0.016900
    11  H    0.016900
 Sum of Mulliken charges =   0.00000

 Dipole moment (field-independent basis, Debye):
    X=              0.0000    Y=              0.0000    Z=              0.0946  Tot=              0.0946
 Quadrupole moment (field-independent basis, Debye-Ang):
   XX=            -21.6555   YY=            -22.5229   ZZ=            -22.1632
   XY=             -0.0000   XZ=             -0.0000   YZ=              0.0000

  Exact polarizability:  36.988  -0.000  43.950   0.000   0.000  38.904
 Approx polarizability:  51.835   0.000  52.235  -0.000   0.000  52.156

                      1                      2                      3
                     A2                     B1                     A1
 Frequencies --    221.1447               268.1555               367.3732
 Red. masses --      1.0275                 1.1358                 2.0529
 Frc consts  --      0.0296                 0.0481                 0.1632
 IR Inten    --      0.0000                 0.0002                 0.0411

                      4                      5                      6
                     B1                     A1                     A2
 Frequencies --    752.7251               870.3785               912.5907
 Red. masses --      1.0796                 2.6078                 1.1012
 Frc consts  --      0.3604                 1.1640                 0.5403
 IR Inten    --      2.9834                 0.7151                 0.0000

                      7                      8                      9
                     B2                     B2                     A1
 Frequencies --    933.3144              1055.4213              1177.7926
 Red. masses --      1.2065                 2.4964                 1.7832
 Frc consts  --      0.6192                 1.6384                 1.4574
 IR Inten    --      1.2674                 1.0178                 1.1252

                     10                     11                     12
                     B1                     A2                     B2
 Frequencies --   1215.4160              1318.1001              1370.0393
 Red. masses --      1.6658                 1.1243                 1.4185
 Frc consts  --      1.4499                 1.1509                 1.5687
 IR Inten    --      0.0683                 0.0000                 3.4387

                     13                     14                     15
                     B2                     A1                     A2
 Frequencies --   1403.9909              1422.1667              1489.7951
 Red. masses --      1.2499                 1.2294                 1.0382
 Frc consts  --      1.4516                 1.4651                 1.3577
 IR Inten    --      3.6367                 2.7533                 0.0000

                     16                     17                     18
                     A1                     B2                     B1
 Frequencies --   1491.0408              1496.5015              1506.5584
 Red. masses --      1.0428                 1.0509                 1.0407
 Frc consts  --      1.3659                 1.3867                 1.3917
 IR Inten    --      0.0300                 2.2030                14.2139

                     19                     20                     21
                     A1                     A1                     B2
 Frequencies --   1512.8994              3017.4000              3020.0526
 Red. masses --      1.0822                 1.0598                 1.0349
 Frc consts  --      1.4594                 5.6849                 5.5614
 IR Inten    --      6.0780                21.1244                36.5887

                     22                     23                     24
                     A1                     B1                     A2
 Frequencies --   3023.6653              3037.4716              3075.9279
 Red. masses --      1.0356                 1.1017                 1.1021
 Frc consts  --      5.5784                 5.9888                 6.1434
 IR Inten    --     28.5130                 3.9286                 0.0000

                     25                     26                     27
                     B2                     B1                     A1
 Frequencies --   3086.0574              3086.9606              3088.4733
 Red. masses --      1.1016                 1.1028                 1.1001
 Frc consts  --      6.1811                 6.1917                 6.1828
 IR Inten    --     30.1340                96.6326                52.2558

 - Thermochemistry -
 -------------------
 Temperature   298.150 Kelvin.  Pressure   1.00000 Atm.
 Atom     1 has atomic number  6 and mass  12.00000

 Molecular mass:    44.06260 amu.
 Principal axes and moments of inertia in atomic units:
                           1         2         3
     Eigenvalues --    60.86498 214.65700 242.20690
           X            0.00000   0.00000   1.00000
           Y            1.00000   0.00000  -0.00000
           Z            0.00000   1.00000   0.00000
 This molecule is an asymmetric top.
 Rotational symmetry number  2.
 Rotational temperatures (Kelvin)      1.42305     0.40350     0.35760
 Rotational constants (GHZ):          29.65155     8.40756     7.45124
 Zero-point vibrational energy     270484.1 (Joules/Mol)
                                   64.64726 (Kcal/Mol)
 Warning -- explicit consideration of   3 degrees of freedom as
           vibrations may cause significant error
 Vibrational temperatures:    318.18   385.82   528.57  1083.00  1252.28
          (Kelvin)           1313.01  1342.83  1518.52  1694.58  1748.71
                             1896.45  1971.18  2020.03  2046.18  2143.48
                             2145.28  2153.13  2167.60  2176.72  4341.37
                             4345.18  4350.38  4370.24  4425.57  4440.15
                             4441.45  4443.62

 Zero-point correction=                           0.103022 (Hartree/Particle)
 Thermal correction to Energy=                    0.107561
 Thermal correction to Enthalpy=                  0.108505
 Thermal correction to Gibbs Free Energy=         0.078011
 Sum of electronic and zero-point Energies=           -119.092817
 Sum of electronic and thermal Energies=              -119.088278
 Sum of electronic and thermal Enthalpies=            -119.087334
 Sum of electronic and thermal Free Energies=         -119.117828

                     E (Thermal)             CV                S
                      KCal/Mol        Cal/Mol-Kelvin    Cal/Mol-Kelvin
 Total                   67.495             14.825             64.180
 Electronic               0.000              0.000              0.000
 Translational            0.889              2.981             37.275
 Rotational               0.889              2.981             21.297
 Vibrational             65.718              8.864              5.608
 Vibration     1          0.648              1.809              1.950
 Vibration     2          0.673              1.732              1.608
 Vibration     3          0.740              1.539              1.091

 Optimization completed.
    -- Stationary point found.
 Normal termination of Gaussian 16 at Mon Feb  7 09:51:09 2022.
