 Gaussian 16, Revision B.01,
 Gaussian 16:  ES64L-G16RevB.01 20-Dec-2017

 --------------------
 # b3lyp/gen opt freq
 --------------------

 ------------------------------
 carbon suboxide, B3LYP/pcseg-2
 ------------------------------
 Symbolic Z-matrix:
 Charge =  0 Multiplicity = 1

 SCF Done:  E(RB3LYP) =  -264.834276634     A.U. after   12 cycles
 SCF Done:  E(RB3LYP) =  -264.834331645     A.U. after    8 cycles
 SCF Done:  E(RB3LYP) =  -264.834333103     A.U. after    7 cycles
 Optimization completed.
    -- Stationary point found.
 Normal termination of Gaussian 16 at Thu Jun 16 08:01:48 2022.

 ------------------------------------------------------------------
 #N Geom=AllCheck Guess=TCheck SCRF=Check GenChk RB3LYP/ChkBas Freq
 ------------------------------------------------------------------

 Structure from the checkpoint file:  "/wrk/irikura/Gau-11247.chk"
 ------------------------------
 carbon suboxide, B3LYP/pcseg-2
 ------------------------------
 Charge =  0 Multiplicity = 1

                         Standard orientation:
 ---------------------------------------------------------------------
 Center     Atomic      Atomic             Coordinates (Angstroms)
 Number     Number       Type             X           Y           Z
 ---------------------------------------------------------------------
      1          6           0        0.000000    0.000000    0.000000
      2          6           0        0.000000    0.000000    1.271408
      3          6           0        0.000000    0.000000   -1.271408
      4          8           0        0.000000    0.000000    2.430159
      5          8           0        0.000000    0.000000   -2.430159
 ---------------------------------------------------------------------

 SCF Done:  E(RB3LYP) =  -264.834333103     A.U. after    1 cycles

 The electronic state is 1-SGG.
 Alpha  occ. eigenvalues --  -19.21294 -19.21294 -10.33185 -10.33185 -10.21191
 Alpha  occ. eigenvalues --   -1.14710  -1.14642  -0.83548  -0.71434  -0.54390
 Alpha  occ. eigenvalues --   -0.53724  -0.49813  -0.49813  -0.47195  -0.47195
 Alpha  occ. eigenvalues --   -0.30291  -0.30291
 Alpha virt. eigenvalues --   -0.07647  -0.07647   0.04160   0.05134   0.12417
 Alpha virt. eigenvalues --    0.12417   0.12657   0.15222   0.15222   0.19100
 Alpha virt. eigenvalues --    0.19412   0.19412   0.23477   0.29637   0.29637

 Mulliken charges:
               1
     1  C   -0.442410
     2  C    0.486317
     3  C    0.486317
     4  O   -0.265112
     5  O   -0.265112
 Sum of Mulliken charges =  -0.00000

 Dipole moment (field-independent basis, Debye):
    X=             -0.0000    Y=             -0.0000    Z=              0.0000  Tot=              0.0000
 Quadrupole moment (field-independent basis, Debye-Ang):
   XX=            -25.9989   YY=            -25.9989   ZZ=            -34.1233
   XY=              0.0000   XZ=              0.0000   YZ=              0.0000

  Exact polarizability:  18.959   0.000  18.959  -0.000  -0.000  83.204
 Approx polarizability:  25.196  -0.000  25.196  -0.000  -0.000 202.355

                      1                      2                      3
                     PIU                    PIU                    PIU
 Frequencies --     66.6199                66.6199               573.0287
 Red. masses --     13.2457                13.2457                12.4766
 Frc consts  --      0.0346                 0.0346                 2.4138
 IR Inten    --      0.1675                 0.1675                63.8808

                      4                      5                      6
                     PIU                    PIG                    PIG
 Frequencies --    573.0287               588.2492               588.2492
 Red. masses --     12.4766                12.5333                12.5333
 Frc consts  --      2.4138                 2.5553                 2.5553
 IR Inten    --     63.8808                 0.0000                 0.0000

                      7                      8                      9
                     SGG                    SGU                    SGG
 Frequencies --    782.8229              1646.1767              2259.0328
 Red. masses --     14.7352                13.5010                12.8224
 Frc consts  --      5.3203                21.5560                38.5535
 IR Inten    --      0.0000               109.1770                 0.0000

                     10
                     SGU
 Frequencies --   2384.1479
 Red. masses --     12.2583
 Frc consts  --     41.0531
 IR Inten    --   3104.8327

 - Thermochemistry -
 -------------------
 Temperature   298.150 Kelvin.  Pressure   1.00000 Atm.
 Atom     1 has atomic number  6 and mass  12.00000

 Molecular mass:    67.98983 amu.
 Principal axes and moments of inertia in atomic units:
                           1         2         3
     Eigenvalues --     0.00000 813.19202 813.19202
           X           -0.00000   0.70711   0.70711
           Y           -0.00000   0.70711  -0.70711
           Z            1.00000   0.00000   0.00000
 This molecule is a prolate symmetric top.
 Rotational symmetry number  2.
 Warning -- assumption of classical behavior for rotation
           may cause significant error
 Rotational temperature (Kelvin)      0.10651
 Rotational constant (GHZ):           2.219330
 Zero-point vibrational energy      56990.0 (Joules/Mol)
                                   13.62093 (Kcal/Mol)
 Warning -- explicit consideration of   6 degrees of freedom as
           vibrations may cause significant error
 Vibrational temperatures:     95.85    95.85   824.46   824.46   846.36
          (Kelvin)            846.36  1126.31  2368.48  3250.24  3430.26

 Zero-point correction=                           0.021706 (Hartree/Particle)
 Thermal correction to Energy=                    0.026438
 Thermal correction to Enthalpy=                  0.027382
 Thermal correction to Gibbs Free Energy=        -0.003795
 Sum of electronic and zero-point Energies=           -264.812627
 Sum of electronic and thermal Energies=              -264.807895
 Sum of electronic and thermal Enthalpies=            -264.806951
 Sum of electronic and thermal Free Energies=         -264.838128

                     E (Thermal)             CV                S
                      KCal/Mol        Cal/Mol-Kelvin    Cal/Mol-Kelvin
 Total                   16.590             13.932             65.618
 Electronic               0.000              0.000              0.000
 Translational            0.889              2.981             38.568
 Rotational               0.592              1.987             16.382
 Vibrational             15.109              8.964             10.668
 Vibration     1          0.598              1.970              4.251
 Vibration     2          0.598              1.970              4.251
 Vibration     3          0.929              1.090              0.498
 Vibration     4          0.929              1.090              0.498
 Vibration     5          0.945              1.057              0.470
 Vibration     6          0.945              1.057              0.470

 Optimization completed.
    -- Stationary point found.
 Normal termination of Gaussian 16 at Thu Jun 16 08:02:03 2022.
