 Gaussian 16, Revision B.01,

 ---------------------------------------
 # b3lyp/gen opt freq CPHF(Grid=OneStep)
 ---------------------------------------

 ------------------------------
 carbon suboxide, B3LYP/pcseg-2
 ------------------------------
 Symbolic Z-matrix:
 Charge =  0 Multiplicity = 1

 SCF Done:  E(RB3LYP) =  -264.834333103     A.U. after   12 cycles
 Optimization completed.
    -- Stationary point found.
 Normal termination of Gaussian 16 at Fri Sep 29 00:59:47 2023.

 ------------------------------------------------------------------
 #N Geom=AllCheck Guess=TCheck SCRF=Check GenChk RB3LYP/ChkBas Freq
 ------------------------------------------------------------------

 Structure from the checkpoint file:  "c3o2.chk"
 ------------------------------
 carbon suboxide, B3LYP/pcseg-2
 ------------------------------
 Charge =  0 Multiplicity = 1

 SCF Done:  E(RB3LYP) =  -264.834333103     A.U. after    1 cycles

  Exact polarizability:  18.959   0.000  18.959  -0.000   0.000  83.205
 Approx polarizability:  25.196  -0.000  25.196  -0.000  -0.000 202.355

                      1                      2                      3
                     PIU                    PIU                    PIU
 Frequencies --     66.6164                66.6164               573.0290
 Red. masses --     13.2457                13.2457                12.4766
 Frc consts  --      0.0346                 0.0346                 2.4138
 IR Inten    --      0.1675                 0.1675                63.8810

                      4                      5                      6
                     PIU                    PIG                    PIG
 Frequencies --    573.0290               588.2489               588.2489
 Red. masses --     12.4766                12.5333                12.5333
 Frc consts  --      2.4138                 2.5553                 2.5553
 IR Inten    --     63.8810                 0.0000                 0.0000

                      7                      8                      9
                     SGG                    SGU                    SGG
 Frequencies --    782.8228              1646.1791              2259.0312
 Red. masses --     14.7352                13.5010                12.8224
 Frc consts  --      5.3203                21.5561                38.5535
 IR Inten    --      0.0000               109.1751                 0.0000

                     10
                     SGU
 Frequencies --   2384.1406
 Red. masses --     12.2583
 Frc consts  --     41.0529
 IR Inten    --   3104.7490

 - Thermochemistry -
 -------------------
 Temperature   298.150 Kelvin.  Pressure   1.00000 Atm.
 Atom     1 has atomic number  6 and mass  12.00000

 Molecular mass:    67.98983 amu.
 Principal axes and moments of inertia in atomic units:
                           1         2         3
     Eigenvalues --     0.00000 813.19196 813.19196
           X           -0.00000   1.00000  -0.00000
           Y            0.00000   0.00000   1.00000
           Z            1.00000   0.00000  -0.00000
 This molecule is a prolate symmetric top.
 Rotational symmetry number  2.
 Warning -- assumption of classical behavior for rotation
           may cause significant error
 Rotational temperature (Kelvin)      0.10651
 Rotational constant (GHZ):           2.219330
 Zero-point vibrational energy      56989.9 (Joules/Mol)
                                   13.62091 (Kcal/Mol)
 Warning -- explicit consideration of   6 degrees of freedom as
           vibrations may cause significant error
 Vibrational temperatures:     95.85    95.85   824.46   824.46   846.36
          (Kelvin)            846.36  1126.31  2368.48  3250.24  3430.25

 Zero-point correction=                           0.021706 (Hartree/Particle)
 Thermal correction to Energy=                    0.026438
 Thermal correction to Enthalpy=                  0.027382
 Thermal correction to Gibbs Free Energy=        -0.003795
 Sum of electronic and zero-point Energies=           -264.812627
 Sum of electronic and thermal Energies=              -264.807895
 Sum of electronic and thermal Enthalpies=            -264.806951
 Sum of electronic and thermal Free Energies=         -264.838128

                     E (Thermal)             CV                S
                      KCal/Mol        Cal/Mol-Kelvin    Cal/Mol-Kelvin
 Total                   16.590             13.932             65.618
 Electronic               0.000              0.000              0.000
 Translational            0.889              2.981             38.568
 Rotational               0.592              1.987             16.382
 Vibrational             15.109              8.964             10.668
 Vibration     1          0.598              1.970              4.251
 Vibration     2          0.598              1.970              4.251
 Vibration     3          0.929              1.090              0.498
 Vibration     4          0.929              1.090              0.498
 Vibration     5          0.945              1.057              0.470
 Vibration     6          0.945              1.057              0.470

 Optimization completed.
    -- Stationary point found.
 Normal termination of Gaussian 16 at Fri Sep 29 01:00:30 2023.
 Gaussian 16:  ES64L-G16RevB.01 20-Dec-2017

 ---------------------------------
 # rohf/gen geom=check guess=check
 ---------------------------------

 ---------------------------------
 carbon suboxide, ROHF/cc-pVTZ-F12
 ---------------------------------
 Structure from the checkpoint file:  "c3o2.chk"
 Charge =  0 Multiplicity = 1

                         Standard orientation:
 ---------------------------------------------------------------------
 Center     Atomic      Atomic             Coordinates (Angstroms)
 Number     Number       Type             X           Y           Z
 ---------------------------------------------------------------------
      1          6           0        0.000000    0.000000    0.000000
      2          6           0        0.000000    0.000000    1.271408
      3          6           0        0.000000    0.000000   -1.271408
      4          8           0        0.000000    0.000000    2.430159
      5          8           0        0.000000    0.000000   -2.430159
 ---------------------------------------------------------------------

 SCF Done:  E(ROHF) =  -263.393260565     A.U. after   10 cycles

 The electronic state is 1-SGG.
 Alpha  occ. eigenvalues --  -20.65117 -20.65117 -11.43015 -11.43013 -11.25552
 Alpha  occ. eigenvalues --   -1.50134  -1.50022  -1.11679  -0.94580  -0.76395
 Alpha  occ. eigenvalues --   -0.75275  -0.67462  -0.67462  -0.64250  -0.64250
 Alpha  occ. eigenvalues --   -0.41044  -0.41044
 Alpha virt. eigenvalues --    0.04384   0.05367   0.05732   0.05732   0.06894
 Alpha virt. eigenvalues --    0.06894   0.07811   0.09486   0.09486   0.11755
 Alpha virt. eigenvalues --    0.13612   0.13612   0.17089   0.20136   0.21803

 Mulliken charges and spin densities:
               1          2
     1  C    0.044287   0.000000
     2  C    0.458891   0.000000
     3  C    0.458891   0.000000
     4  O   -0.481034   0.000000
     5  O   -0.481034   0.000000
 Sum of Mulliken charges =  -0.00000   0.00000

 Dipole moment (field-independent basis, Debye):
    X=             -0.0000    Y=              0.0000    Z=             -0.0000  Tot=              0.0000
 Quadrupole moment (field-independent basis, Debye-Ang):
   XX=            -26.2346   YY=            -26.2346   ZZ=            -35.5173
   XY=             -0.0000   XZ=              0.0000   YZ=              0.0000

 Normal termination of Gaussian 16 at Fri Sep 29 01:00:59 2023.
