 Gaussian 16, Revision B.01,

 ---------------------------------------
 # b3lyp/gen opt freq CPHF(Grid=OneStep)
 ---------------------------------------

 -------------------------------
 cyclopentadienyl, B3LYP/pcseg-2
 -------------------------------
 Symbolic Z-matrix:
 Charge =  0 Multiplicity = 2

 SCF Done:  E(UB3LYP) =  -193.539073200     A.U. after   14 cycles
 Optimization completed.
    -- Stationary point found.
 Normal termination of Gaussian 16 at Thu Sep 28 14:03:14 2023.

 ------------------------------------------------------------------
 #N Geom=AllCheck Guess=TCheck SCRF=Check GenChk UB3LYP/ChkBas Freq
 ------------------------------------------------------------------

 Structure from the checkpoint file:  "c5h5.chk"
 -------------------------------
 cyclopentadienyl, B3LYP/pcseg-2
 -------------------------------
 Charge =  0 Multiplicity = 2

 SCF Done:  E(UB3LYP) =  -193.539073200     A.U. after    1 cycles

  Exact polarizability:  34.036   0.000  65.477   0.000  -0.000  60.120
 Approx polarizability:  50.806   0.000 109.427   0.000   0.000  86.181

                      1                      2                      3
                     B2                     B1                     A2
 Frequencies --     71.4592               491.1213               526.8455
 Red. masses --      9.3195                 2.0107                 2.3826
 Frc consts  --      0.0280                 0.2857                 0.3896
 IR Inten    --      7.3785                10.6233                 0.0000

                      4                      5                      6
                     B1                     B1                     A2
 Frequencies --    681.3142               727.1466               826.7733
 Red. masses --      1.1316                 1.3977                 1.4239
 Frc consts  --      0.3095                 0.4354                 0.5735
 IR Inten    --    117.0418                 0.9076                 0.0000

                      7                      8                      9
                     A1                     B1                     A2
 Frequencies --    849.6602               895.5014               918.1062
 Red. masses --      4.9291                 1.4531                 1.3718
 Frc consts  --      2.0965                 0.6866                 0.6813
 IR Inten    --      0.2341                 7.1448                 0.0000

                     10                     11                     12
                     B2                     B2                     A1
 Frequencies --    922.1082               969.5193              1035.3788
 Red. masses --      2.2229                 1.8107                 1.8041
 Frc consts  --      1.1136                 1.0028                 1.1395
 IR Inten    --      3.3575                 0.3622                12.3710

                     13                     14                     15
                     A1                     A1                     B2
 Frequencies --   1084.9795              1145.7772              1220.2576
 Red. masses --      1.4556                 1.8663                 1.4905
 Frc consts  --      1.0096                 1.4436                 1.3077
 IR Inten    --     10.5667                 0.0064                 1.7447

                     16                     17                     18
                     B2                     B2                     A1
 Frequencies --   1305.3450              1402.5580              1446.1290
 Red. masses --      1.2838                 1.8674                 3.7822
 Frc consts  --      1.2888                 2.1643                 4.6602
 IR Inten    --      0.0024                38.7152                 2.4385

                     19                     20                     21
                     A1                     A1                     B2
 Frequencies --   1569.7390              3209.4246              3210.6394
 Red. masses --      4.0566                 1.0886                 1.0895
 Frc consts  --      5.8893                 6.6065                 6.6171
 IR Inten    --      0.2518                 0.9300                 6.6215

                     22                     23                     24
                     B2                     A1                     A1
 Frequencies --   3225.1167              3240.4158              3247.9371
 Red. masses --      1.0899                 1.0989                 1.1054
 Frc consts  --      6.6794                 6.7987                 6.8706
 IR Inten    --     13.3521                 7.1116                 0.0052

 - Thermochemistry -
 -------------------
 Temperature   298.150 Kelvin.  Pressure   1.00000 Atm.
 Atom     1 has atomic number  6 and mass  12.00000

 Molecular mass:    65.03913 amu.
 Principal axes and moments of inertia in atomic units:
                           1         2         3
     Eigenvalues --   193.25648 211.06861 404.32510
           X            0.00000   0.00000   1.00000
           Y            0.00000   1.00000  -0.00000
           Z            1.00000   0.00000   0.00000
 This molecule is an asymmetric top.
 Rotational symmetry number  2.
 Rotational temperatures (Kelvin)      0.44818     0.41036     0.21422
 Rotational constants (GHZ):           9.33858     8.55050     4.46359
 Zero-point vibrational energy     204700.5 (Joules/Mol)
                                   48.92460 (Kcal/Mol)
 Warning -- explicit consideration of   3 degrees of freedom as
           vibrations may cause significant error
 Vibrational temperatures:    102.81   706.61   758.01   980.26  1046.20
          (Kelvin)           1189.54  1222.47  1288.43  1320.95  1326.71
                             1394.92  1489.68  1561.04  1648.52  1755.68
                             1878.10  2017.97  2080.66  2258.50  4617.65
                             4619.39  4640.22  4662.24  4673.06

 Zero-point correction=                           0.077966 (Hartree/Particle)
 Thermal correction to Energy=                    0.082704
 Thermal correction to Enthalpy=                  0.083648
 Thermal correction to Gibbs Free Energy=         0.050431
 Sum of electronic and zero-point Energies=           -193.461107
 Sum of electronic and thermal Energies=              -193.456370
 Sum of electronic and thermal Enthalpies=            -193.455425
 Sum of electronic and thermal Free Energies=         -193.488642

                     E (Thermal)             CV                S
                      KCal/Mol        Cal/Mol-Kelvin    Cal/Mol-Kelvin
 Total                   51.897             16.545             69.911
 Electronic               0.000              0.000              1.377
 Translational            0.889              2.981             38.436
 Rotational               0.889              2.981             22.938
 Vibrational             50.120             10.584              7.160
 Vibration     1          0.598              1.968              4.113
 Vibration     2          0.847              1.270              0.681
 Vibration     3          0.882              1.191              0.594

                           ! Non-Optimized Parameters !
 Normal termination of Gaussian 16 at Thu Sep 28 14:11:01 2023.
 Gaussian 16:  ES64L-G16RevB.01 20-Dec-2017

 ---------------------------------
 # rohf/gen geom=check guess=check
 ---------------------------------

 ----------------------------------
 cyclopentadienyl, ROHF/cc-pVTZ-F12
 ----------------------------------
 Structure from the checkpoint file:  "c5h5.chk"
 Charge =  0 Multiplicity = 2

                         Standard orientation:
 ---------------------------------------------------------------------
 Center     Atomic      Atomic             Coordinates (Angstroms)
 Number     Number       Type             X           Y           Z
 ---------------------------------------------------------------------
      1          6           0        0.000000    0.000000    1.221136
      2          6           0        0.000000    1.121674    0.392800
      3          6           0        0.000000    0.677320   -1.003766
      4          6           0       -0.000000   -0.677320   -1.003766
      5          6           0       -0.000000   -1.121674    0.392800
      6          1           0        0.000000    0.000000    2.298017
      7          1           0        0.000000    2.152515    0.713930
      8          1           0        0.000000    1.331255   -1.860550
      9          1           0       -0.000000   -1.331255   -1.860550
     10          1           0       -0.000000   -2.152515    0.713930
 ---------------------------------------------------------------------

 SCF Done:  E(ROHF) =  -192.253300113     A.U. after   12 cycles

 The electronic state is 2-A2.
 Alpha  occ. eigenvalues --  -11.25204 -11.25202 -11.22893 -11.22739 -11.21148
 Alpha  occ. eigenvalues --   -1.15710  -0.96585  -0.93591  -0.73975  -0.73966
 Alpha  occ. eigenvalues --   -0.70630  -0.56384  -0.54353  -0.52657  -0.52369
 Alpha  occ. eigenvalues --   -0.47630  -0.30306  -0.09761
 Alpha virt. eigenvalues --    0.05178   0.05180   0.05384   0.06974   0.06987
 Alpha virt. eigenvalues --    0.08580   0.10748   0.10878   0.11883   0.11890
 Alpha virt. eigenvalues --    0.12390   0.12416   0.12845   0.13644   0.13652

 Mulliken charges and spin densities:
               1          2
     1  C   -0.267720   0.024636
     2  C   -0.086735   0.380056
     3  C   -0.189981   0.097139
     4  C   -0.189981   0.097139
     5  C   -0.086735   0.380056
     6  H    0.161413   0.000095
     7  H    0.166752   0.008624
     8  H    0.163117   0.001816
     9  H    0.163117   0.001816
    10  H    0.166752   0.008624
 Sum of Mulliken charges =  -0.00000   1.00000

 Dipole moment (field-independent basis, Debye):
    X=             -0.0000    Y=             -0.0000    Z=             -0.0196  Tot=              0.0196
 Quadrupole moment (field-independent basis, Debye-Ang):
   XX=            -34.2983   YY=            -25.4913   ZZ=            -28.3086
   XY=              0.0000   XZ=              0.0000   YZ=             -0.0000

 Normal termination of Gaussian 16 at Thu Sep 28 14:12:49 2023.
