 Gaussian 16, Revision B.01,
 Gaussian 16:  ES64L-G16RevB.01 20-Dec-2017

 ---------------------------------------
 # b3lyp/gen opt freq CPHF(Grid=OneStep)
 ---------------------------------------

 -------------------------------
 cyclopentadienyl, B3LYP/pcseg-2
 -------------------------------
 Symbolic Z-matrix:
 Charge =  0 Multiplicity = 2

 SCF Done:  E(UB3LYP) =  -193.539020873     A.U. after   14 cycles
 SCF Done:  E(UB3LYP) =  -193.539073200     A.U. after    8 cycles
 Optimization completed.
    -- Stationary point found.
 Normal termination of Gaussian 16 at Fri Sep 15 22:17:55 2023.

 ------------------------------------------------------------------
 #N Geom=AllCheck Guess=TCheck SCRF=Check GenChk UB3LYP/ChkBas Freq
 ------------------------------------------------------------------

 Structure from the checkpoint file:  "/wrk/irikura/Gau-61344.chk"
 -------------------------------
 cyclopentadienyl, B3LYP/pcseg-2
 -------------------------------
 Charge =  0 Multiplicity = 2

                         Standard orientation:
 ---------------------------------------------------------------------
 Center     Atomic      Atomic             Coordinates (Angstroms)
 Number     Number       Type             X           Y           Z
 ---------------------------------------------------------------------
      1          6           0       -0.000000    0.000000    1.221136
      2          6           0       -0.000000    1.121674    0.392800
      3          6           0       -0.000000    0.677320   -1.003766
      4          6           0       -0.000000   -0.677320   -1.003766
      5          6           0       -0.000000   -1.121674    0.392800
      6          1           0       -0.000000    0.000000    2.298017
      7          1           0       -0.000000    2.152515    0.713930
      8          1           0       -0.000000    1.331255   -1.860550
      9          1           0       -0.000000   -1.331255   -1.860550
     10          1           0       -0.000000   -2.152515    0.713930
 ---------------------------------------------------------------------

 SCF Done:  E(UB3LYP) =  -193.539073200     A.U. after    1 cycles

 The electronic state is 2-A2.
 Alpha  occ. eigenvalues --  -10.19761 -10.19761 -10.17331 -10.17253 -10.16043
 Alpha  occ. eigenvalues --   -0.87424  -0.71255  -0.70740  -0.54864  -0.54734
 Alpha  occ. eigenvalues --   -0.52819  -0.40706  -0.39356  -0.38576  -0.38205
 Alpha  occ. eigenvalues --   -0.38020  -0.23714  -0.22929
 Alpha virt. eigenvalues --    0.02313   0.03902   0.03922   0.04543   0.04787
 Alpha virt. eigenvalues --    0.07141   0.07151   0.14404   0.15710   0.15727
 Alpha virt. eigenvalues --    0.16183   0.17107   0.18522   0.20368   0.20702

  Beta  occ. eigenvalues --  -10.19002 -10.19000 -10.17214 -10.17135 -10.16295
  Beta  occ. eigenvalues --   -0.86386  -0.71036  -0.68680  -0.54109  -0.54107
  Beta  occ. eigenvalues --   -0.52642  -0.40648  -0.38894  -0.37842  -0.37516
  Beta  occ. eigenvalues --   -0.35425  -0.22344
  Beta virt. eigenvalues --   -0.13562   0.02368   0.04621   0.04786   0.06230
  Beta virt. eigenvalues --    0.06237   0.07246   0.07255   0.14809   0.15748
  Beta virt. eigenvalues --    0.15792   0.16732   0.17281   0.18681   0.20740

 Mulliken charges and spin densities:
               1          2
     1  C   -0.121069  -0.194885
     2  C    0.035513   0.537933
     3  C   -0.062803   0.082457
     4  C   -0.062803   0.082457
     5  C    0.035513   0.537933
     6  H    0.028012   0.005295
     7  H    0.041355  -0.021110
     8  H    0.032464  -0.004485
     9  H    0.032464  -0.004485
    10  H    0.041355  -0.021110
 Sum of Mulliken charges =  -0.00000   1.00000

 Dipole moment (field-independent basis, Debye):
    X=             -0.0000    Y=              0.0000    Z=              0.0552  Tot=              0.0552
 Quadrupole moment (field-independent basis, Debye-Ang):
   XX=            -33.5706   YY=            -26.0296   ZZ=            -28.1733
   XY=              0.0000   XZ=             -0.0000   YZ=              0.0000

  Exact polarizability:  34.036   0.000  65.477   0.000  -0.000  60.120
 Approx polarizability:  50.806   0.000 109.427   0.000  -0.000  86.181

                      1                      2                      3
                     B2                     B1                     A2
 Frequencies --     71.5108               491.1206               526.8456
 Red. masses --      9.3195                 2.0107                 2.3826
 Frc consts  --      0.0281                 0.2857                 0.3896
 IR Inten    --      7.3782                10.6234                 0.0000

                      4                      5                      6
                     B1                     B1                     A2
 Frequencies --    681.3134               727.1463               826.7735
 Red. masses --      1.1316                 1.3977                 1.4239
 Frc consts  --      0.3095                 0.4354                 0.5735
 IR Inten    --    117.0414                 0.9079                 0.0000

                      7                      8                      9
                     A1                     B1                     A2
 Frequencies --    849.6603               895.5018               918.1048
 Red. masses --      4.9291                 1.4531                 1.3718
 Frc consts  --      2.0965                 0.6866                 0.6813
 IR Inten    --      0.2341                 7.1447                 0.0000

                     10                     11                     12
                     B2                     B2                     A1
 Frequencies --    922.1084               969.5195              1035.3789
 Red. masses --      2.2229                 1.8107                 1.8041
 Frc consts  --      1.1136                 1.0028                 1.1395
 IR Inten    --      3.3575                 0.3622                12.3709

                     13                     14                     15
                     A1                     A1                     B2
 Frequencies --   1084.9789              1145.7768              1220.2583
 Red. masses --      1.4556                 1.8663                 1.4905
 Frc consts  --      1.0096                 1.4436                 1.3077
 IR Inten    --     10.5668                 0.0064                 1.7447

                     16                     17                     18
                     B2                     B2                     A1
 Frequencies --   1305.3447              1402.5579              1446.1290
 Red. masses --      1.2838                 1.8674                 3.7822
 Frc consts  --      1.2888                 2.1643                 4.6602
 IR Inten    --      0.0024                38.7153                 2.4385

                     19                     20                     21
                     A1                     A1                     B2
 Frequencies --   1569.7369              3209.4244              3210.6399
 Red. masses --      4.0565                 1.0886                 1.0895
 Frc consts  --      5.8892                 6.6065                 6.6171
 IR Inten    --      0.2518                 0.9299                 6.6229

                     22                     23                     24
                     B2                     A1                     A1
 Frequencies --   3225.1183              3240.4164              3247.9370
 Red. masses --      1.0899                 1.0989                 1.1054
 Frc consts  --      6.6794                 6.7987                 6.8706
 IR Inten    --     13.3509                 7.1117                 0.0051

 - Thermochemistry -
 -------------------
 Temperature   298.150 Kelvin.  Pressure   1.00000 Atm.
 Atom     1 has atomic number  6 and mass  12.00000

 Molecular mass:    65.03913 amu.
 Principal axes and moments of inertia in atomic units:
                           1         2         3
     Eigenvalues --   193.25644 211.06870 404.32514
           X            0.00000   0.00000   1.00000
           Y            0.00000   1.00000  -0.00000
           Z            1.00000  -0.00000   0.00000
 This molecule is an asymmetric top.
 Rotational symmetry number  2.
 Rotational temperatures (Kelvin)      0.44818     0.41036     0.21422
 Rotational constants (GHZ):           9.33858     8.55049     4.46359
 Zero-point vibrational energy     204700.8 (Joules/Mol)
                                   48.92467 (Kcal/Mol)
 Warning -- explicit consideration of   3 degrees of freedom as
           vibrations may cause significant error
 Vibrational temperatures:    102.89   706.61   758.01   980.26  1046.20
          (Kelvin)           1189.54  1222.47  1288.43  1320.95  1326.71
                             1394.92  1489.68  1561.04  1648.52  1755.68
                             1878.10  2017.97  2080.66  2258.50  4617.65
                             4619.39  4640.23  4662.24  4673.06

 Zero-point correction=                           0.077966 (Hartree/Particle)
 Thermal correction to Energy=                    0.082704
 Thermal correction to Enthalpy=                  0.083648
 Thermal correction to Gibbs Free Energy=         0.050432
 Sum of electronic and zero-point Energies=           -193.461107
 Sum of electronic and thermal Energies=              -193.456370
 Sum of electronic and thermal Enthalpies=            -193.455425
 Sum of electronic and thermal Free Energies=         -193.488642

                     E (Thermal)             CV                S
                      KCal/Mol        Cal/Mol-Kelvin    Cal/Mol-Kelvin
 Total                   51.897             16.545             69.909
 Electronic               0.000              0.000              1.377
 Translational            0.889              2.981             38.436
 Rotational               0.889              2.981             22.938
 Vibrational             50.120             10.584              7.159
 Vibration     1          0.598              1.968              4.111
 Vibration     2          0.847              1.270              0.681
 Vibration     3          0.882              1.191              0.594

                           ! Non-Optimized Parameters !
 Normal termination of Gaussian 16 at Fri Sep 15 22:20:58 2023.
