 Gaussian 16, Revision B.01,
 Gaussian 16:  ES64L-G16RevB.01 20-Dec-2017

 --------------------
 # b3lyp/gen opt freq
 --------------------

 ---------------------
 phenyl, B3LYP/pcseg-2
 ---------------------
 Symbolic Z-matrix:
 Charge =  0 Multiplicity = 2

 SCF Done:  E(UB3LYP) =  -231.650341106     A.U. after   16 cycles
 SCF Done:  E(UB3LYP) =  -231.650429213     A.U. after   11 cycles
 Optimization completed.
    -- Stationary point found.
 Normal termination of Gaussian 16 at Wed Jun 15 10:23:00 2022.

 ------------------------------------------------------------------
 #N Geom=AllCheck Guess=TCheck SCRF=Check GenChk UB3LYP/ChkBas Freq
 ------------------------------------------------------------------

 Structure from the checkpoint file:  "/wrk/irikura/Gau-1285.chk"
 ---------------------
 phenyl, B3LYP/pcseg-2
 ---------------------
 Charge =  0 Multiplicity = 2

                         Standard orientation:
 ---------------------------------------------------------------------
 Center     Atomic      Atomic             Coordinates (Angstroms)
 Number     Number       Type             X           Y           Z
 ---------------------------------------------------------------------
      1          6           0       -0.000000    0.000000    1.391478
      2          6           0       -0.000000    1.221082    0.769021
      3          6           0       -0.000000   -1.221082    0.769021
      4          6           0       -0.000000    1.209044   -0.629752
      5          6           0       -0.000000   -1.209044   -0.629752
      6          6           0        0.000000   -0.000000   -1.318545
      7          1           0       -0.000000    2.152621    1.318905
      8          1           0       -0.000000   -2.152621    1.318905
      9          1           0       -0.000000    2.145154   -1.173312
     10          1           0       -0.000000   -2.145154   -1.173312
     11          1           0        0.000000   -0.000000   -2.400014
 ---------------------------------------------------------------------

 SCF Done:  E(UB3LYP) =  -231.650429213     A.U. after    1 cycles

 The electronic state is 2-A1.
 Alpha  occ. eigenvalues --  -10.20163 -10.18828 -10.18826 -10.18670 -10.18668
 Alpha  occ. eigenvalues --  -10.18081  -0.87172  -0.76200  -0.75293  -0.61825
 Alpha  occ. eigenvalues --   -0.60320  -0.52791  -0.46469  -0.46295  -0.44014
 Alpha  occ. eigenvalues --   -0.39925  -0.38382  -0.36601  -0.26862  -0.26805
 Alpha  occ. eigenvalues --   -0.24858
 Alpha virt. eigenvalues --   -0.02507  -0.01758   0.01703   0.03790   0.04612
 Alpha virt. eigenvalues --    0.06821   0.07763   0.13248   0.13437   0.15319
 Alpha virt. eigenvalues --    0.16297   0.17549   0.19305   0.19685   0.20063

  Beta  occ. eigenvalues --  -10.18719 -10.18711 -10.18667 -10.18654 -10.18546
  Beta  occ. eigenvalues --  -10.18136  -0.86366  -0.75843  -0.74198  -0.61470
  Beta  occ. eigenvalues --   -0.59162  -0.52075  -0.45812  -0.45632  -0.43579
  Beta  occ. eigenvalues --   -0.38758  -0.38056  -0.36180  -0.26838  -0.26175
  Beta virt. eigenvalues --   -0.09160  -0.02566  -0.00828   0.01792   0.03818
  Beta virt. eigenvalues --    0.04745   0.06838   0.08060   0.13904   0.14456
  Beta virt. eigenvalues --    0.15423   0.16296   0.17564   0.19399   0.19679

 Mulliken charges and spin densities:
               1          2
     1  C   -0.015920   0.953357
     2  C   -0.030342  -0.047677
     3  C   -0.030342  -0.047677
     4  C   -0.029683   0.057762
     5  C   -0.029683   0.057762
     6  C   -0.025912  -0.039806
     7  H    0.041029   0.021486
     8  H    0.041029   0.021486
     9  H    0.028579   0.010783
    10  H    0.028579   0.010783
    11  H    0.022667   0.001743
 Sum of Mulliken charges =  -0.00000   1.00000

 Dipole moment (field-independent basis, Debye):
    X=              0.0000    Y=             -0.0000    Z=             -0.8865  Tot=              0.8865
 Quadrupole moment (field-independent basis, Debye-Ang):
   XX=            -39.1104   YY=            -30.3751   ZZ=            -34.4752
   XY=              0.0000   XZ=              0.0000   YZ=              0.0000

  Exact polarizability:  38.616  -0.000  79.049  -0.000   0.000  74.479
 Approx polarizability:  58.392   0.000 130.930  -0.000  -0.000 123.913

                      1                      2                      3
                     A2                     B1                     B2
 Frequencies --    401.4771               427.9545               602.6172
 Red. masses --      2.7900                 3.5688                 6.4284
 Frc consts  --      0.2650                 0.3851                 1.3754
 IR Inten    --      0.0000                 6.6357                 0.6032

                      4                      5                      6
                     A1                     B1                     B1
 Frequencies --    622.0375               674.1448               724.7133
 Red. masses --      6.9137                 2.4965                 1.3358
 Frc consts  --      1.5761                 0.6685                 0.4134
 IR Inten    --      1.4616                23.2414                76.6657

                      7                      8                      9
                     A2                     B1                     A2
 Frequencies --    819.1372               900.4819               976.0248
 Red. masses --      1.2488                 1.3249                 1.3898
 Frc consts  --      0.4937                 0.6330                 0.7800
 IR Inten    --      0.0000                 0.5445                 0.0000

                     10                     11                     12
                     A1                     B1                     A1
 Frequencies --    994.1374              1001.6063              1018.8827
 Red. masses --      6.6243                 1.3143                 4.9646
 Frc consts  --      3.8573                 0.7768                 3.0366
 IR Inten    --      1.1263                 0.2136                 0.3117

                     13                     14                     15
                     A1                     B2                     A1
 Frequencies --   1051.8024              1074.3885              1177.5545
 Red. masses --      1.9432                 1.6424                 1.1524
 Frc consts  --      1.2666                 1.1170                 0.9415
 IR Inten    --      8.8105                 3.9178                 0.0855

                     16                     17                     18
                     B2                     B2                     B2
 Frequencies --   1177.7941              1305.7022              1327.1183
 Red. masses --      1.1310                 2.1495                 2.1144
 Frc consts  --      0.9244                 2.1591                 2.1941
 IR Inten    --      0.1431                 0.3352                 0.1152

                     19                     20                     21
                     B2                     A1                     A1
 Frequencies --   1467.6166              1475.0542              1573.2164
 Red. masses --      2.0354                 2.1414                 4.5064
 Frc consts  --      2.5831                 2.7452                 6.5714
 IR Inten    --      5.3228                 8.0887                 0.9082

                     22                     23                     24
                     B2                     A1                     B2
 Frequencies --   1627.7854              3162.4910              3168.2065
 Red. masses --      6.4275                 1.0848                 1.0859
 Frc consts  --     10.0343                 6.3925                 6.4218
 IR Inten    --      2.0830                 0.8368                 3.3010

                     25                     26                     27
                     A1                     B2                     A1
 Frequencies --   3180.5537              3183.0019              3193.5599
 Red. masses --      1.0909                 1.0928                 1.0969
 Frc consts  --      6.5020                 6.5234                 6.5913
 IR Inten    --      3.3949                18.7011                 9.3386

 - Thermochemistry -
 -------------------
 Temperature   298.150 Kelvin.  Pressure   1.00000 Atm.
 Atom     1 has atomic number  6 and mass  12.00000

 Molecular mass:    77.03913 amu.
 Principal axes and moments of inertia in atomic units:
                           1         2         3
     Eigenvalues --   285.10755 319.55088 604.65842
           X           -0.00000   0.00000   1.00000
           Y            1.00000   0.00000  -0.00000
           Z           -0.00000   1.00000  -0.00000
 This molecule is an asymmetric top.
 Rotational symmetry number  2.
 Rotational temperatures (Kelvin)      0.30379     0.27105     0.14324
 Rotational constants (GHZ):           6.33004     5.64774     2.98473
 Zero-point vibrational energy     229139.1 (Joules/Mol)
                                   54.76555 (Kcal/Mol)
 Warning -- explicit consideration of   3 degrees of freedom as
           vibrations may cause significant error
 Vibrational temperatures:    577.64   615.73   867.03   894.97   969.94
          (Kelvin)           1042.70  1178.56  1295.59  1404.28  1430.34
                             1441.09  1465.94  1513.31  1545.81  1694.24
                             1694.58  1878.61  1909.43  2111.57  2122.27
                             2263.51  2342.02  4550.12  4558.34  4576.11
                             4579.63  4594.82

 Zero-point correction=                           0.087274 (Hartree/Particle)
 Thermal correction to Energy=                    0.091640
 Thermal correction to Enthalpy=                  0.092584
 Thermal correction to Gibbs Free Energy=         0.059900
 Sum of electronic and zero-point Energies=           -231.563155
 Sum of electronic and thermal Energies=              -231.558789
 Sum of electronic and thermal Enthalpies=            -231.557845
 Sum of electronic and thermal Free Energies=         -231.590529

                     E (Thermal)             CV                S
                      KCal/Mol        Cal/Mol-Kelvin    Cal/Mol-Kelvin
 Total                   57.505             16.770             68.790
 Electronic               0.000              0.000              1.377
 Translational            0.889              2.981             38.940
 Rotational               0.889              2.981             24.136
 Vibrational             55.728             10.808              4.336
 Vibration     1          0.767              1.467              0.957
 Vibration     2          0.789              1.409              0.865
 Vibration     3          0.961              1.026              0.445

 Optimization completed.
    -- Stationary point found.
 Normal termination of Gaussian 16 at Wed Jun 15 10:25:16 2022.
