 Gaussian 16, Revision B.01,

 ---------------------------------------
 # b3lyp/gen opt freq CPHF(Grid=OneStep)
 ---------------------------------------

 ---------------------
 phenyl, B3LYP/pcseg-2
 ---------------------
 Symbolic Z-matrix:
 Charge =  0 Multiplicity = 2

 SCF Done:  E(UB3LYP) =  -231.650429212     A.U. after   16 cycles
 Optimization completed.
    -- Stationary point found.
 Normal termination of Gaussian 16 at Thu Sep 28 17:35:41 2023.

 ------------------------------------------------------------------
 #N Geom=AllCheck Guess=TCheck SCRF=Check GenChk UB3LYP/ChkBas Freq
 ------------------------------------------------------------------

 Structure from the checkpoint file:  "c6h5.chk"
 ---------------------
 phenyl, B3LYP/pcseg-2
 ---------------------
 Charge =  0 Multiplicity = 2

 SCF Done:  E(UB3LYP) =  -231.650429212     A.U. after    1 cycles

  Exact polarizability:  38.616   0.000  79.049  -0.000   0.000  74.479
 Approx polarizability:  58.392   0.000 130.930  -0.000   0.000 123.913

                      1                      2                      3
                     A2                     B1                     B2
 Frequencies --    401.4757               427.9539               602.6270
 Red. masses --      2.7900                 3.5688                 6.4284
 Frc consts  --      0.2650                 0.3851                 1.3755
 IR Inten    --      0.0000                 6.6346                 0.6033

                      4                      5                      6
                     A1                     B1                     B1
 Frequencies --    622.0451               674.1502               724.7153
 Red. masses --      6.9138                 2.4967                 1.3358
 Frc consts  --      1.5762                 0.6685                 0.4134
 IR Inten    --      1.4614                23.2382                76.6681

                      7                      8                      9
                     A2                     B1                     A2
 Frequencies --    819.1468               900.4854               976.0249
 Red. masses --      1.2488                 1.3249                 1.3898
 Frc consts  --      0.4937                 0.6330                 0.7800
 IR Inten    --      0.0000                 0.5442                 0.0000

                     10                     11                     12
                     A1                     B1                     A1
 Frequencies --    994.1383              1001.6077              1018.8870
 Red. masses --      6.6241                 1.3143                 4.9647
 Frc consts  --      3.8572                 0.7768                 3.0367
 IR Inten    --      1.1258                 0.2136                 0.3118

                     13                     14                     15
                     A1                     B2                     A1
 Frequencies --   1051.8046              1074.3926              1177.5550
 Red. masses --      1.9432                 1.6423                 1.1524
 Frc consts  --      1.2666                 1.1170                 0.9415
 IR Inten    --      8.8108                 3.9182                 0.0855

                     16                     17                     18
                     B2                     B2                     B2
 Frequencies --   1177.7967              1305.7089              1327.1232
 Red. masses --      1.1310                 2.1498                 2.1140
 Frc consts  --      0.9244                 2.1595                 2.1937
 IR Inten    --      0.1430                 0.3353                 0.1154

                     19                     20                     21
                     B2                     A1                     A1
 Frequencies --   1467.6258              1475.0571              1573.2157
 Red. masses --      2.0355                 2.1415                 4.5063
 Frc consts  --      2.5832                 2.7452                 6.5712
 IR Inten    --      5.3219                 8.0881                 0.9093

                     22                     23                     24
                     B2                     A1                     B2
 Frequencies --   1627.7939              3162.4908              3168.2051
 Red. masses --      6.4279                 1.0848                 1.0859
 Frc consts  --     10.0349                 6.3925                 6.4218
 IR Inten    --      2.0831                 0.8377                 3.3028

                     25                     26                     27
                     A1                     B2                     A1
 Frequencies --   3180.5554              3183.0020              3193.5617
 Red. masses --      1.0909                 1.0928                 1.0969
 Frc consts  --      6.5020                 6.5234                 6.5913
 IR Inten    --      3.3928                18.6992                 9.3381

 - Thermochemistry -
 -------------------
 Temperature   298.150 Kelvin.  Pressure   1.00000 Atm.
 Atom     1 has atomic number  6 and mass  12.00000

 Molecular mass:    77.03913 amu.
 Principal axes and moments of inertia in atomic units:
                           1         2         3
     Eigenvalues --   285.10749 319.55084 604.65833
           X           -0.00000   0.00000   1.00000
           Y            1.00000   0.00000  -0.00000
           Z           -0.00000   1.00000  -0.00000
 This molecule is an asymmetric top.
 Rotational symmetry number  2.
 Rotational temperatures (Kelvin)      0.30379     0.27105     0.14324
 Rotational constants (GHZ):           6.33004     5.64774     2.98473
 Zero-point vibrational energy     229139.6 (Joules/Mol)
                                   54.76567 (Kcal/Mol)
 Warning -- explicit consideration of   3 degrees of freedom as
           vibrations may cause significant error
 Vibrational temperatures:    577.63   615.73   867.05   894.98   969.95
          (Kelvin)           1042.70  1178.57  1295.60  1404.28  1430.34
                             1441.09  1465.95  1513.31  1545.81  1694.24
                             1694.59  1878.62  1909.43  2111.59  2122.28
                             2263.51  2342.03  4550.12  4558.34  4576.11
                             4579.63  4594.82

 Zero-point correction=                           0.087275 (Hartree/Particle)
 Thermal correction to Energy=                    0.091640
 Thermal correction to Enthalpy=                  0.092585
 Thermal correction to Gibbs Free Energy=         0.059900
 Sum of electronic and zero-point Energies=           -231.563155
 Sum of electronic and thermal Energies=              -231.558789
 Sum of electronic and thermal Enthalpies=            -231.557845
 Sum of electronic and thermal Free Energies=         -231.590529

                     E (Thermal)             CV                S
                      KCal/Mol        Cal/Mol-Kelvin    Cal/Mol-Kelvin
 Total                   57.505             16.770             68.790
 Electronic               0.000              0.000              1.377
 Translational            0.889              2.981             38.940
 Rotational               0.889              2.981             24.136
 Vibrational             55.728             10.808              4.336
 Vibration     1          0.767              1.467              0.957
 Vibration     2          0.789              1.409              0.865
 Vibration     3          0.961              1.026              0.445

 Optimization completed.
    -- Stationary point found.
 Normal termination of Gaussian 16 at Thu Sep 28 17:47:43 2023.
 Gaussian 16:  ES64L-G16RevB.01 20-Dec-2017

 ---------------------------------
 # rohf/gen geom=check guess=check
 ---------------------------------

 ------------------------
 phenyl, ROHF/cc-pVTZ-F12
 ------------------------
 Structure from the checkpoint file:  "c6h5.chk"
 Charge =  0 Multiplicity = 2

                         Standard orientation:
 ---------------------------------------------------------------------
 Center     Atomic      Atomic             Coordinates (Angstroms)
 Number     Number       Type             X           Y           Z
 ---------------------------------------------------------------------
      1          6           0        0.000000    0.000000    1.391478
      2          6           0        0.000000    1.221082    0.769021
      3          6           0       -0.000000   -1.221082    0.769021
      4          6           0        0.000000    1.209044   -0.629752
      5          6           0       -0.000000   -1.209044   -0.629752
      6          6           0       -0.000000    0.000000   -1.318545
      7          1           0        0.000000    2.152621    1.318905
      8          1           0       -0.000000   -2.152621    1.318905
      9          1           0        0.000000    2.145154   -1.173312
     10          1           0       -0.000000   -2.145154   -1.173312
     11          1           0       -0.000000    0.000000   -2.400014
 ---------------------------------------------------------------------

 SCF Done:  E(ROHF) =  -230.139206998     A.U. after   17 cycles

 The electronic state is 2-A1.
 Alpha  occ. eigenvalues --  -11.24647 -11.24327 -11.24321 -11.24027 -11.24013
 Alpha  occ. eigenvalues --  -11.23528  -1.15547  -1.02307  -1.00397  -0.83224
 Alpha  occ. eigenvalues --   -0.80219  -0.69811  -0.62815  -0.62614  -0.59667
 Alpha  occ. eigenvalues --   -0.53640  -0.51099  -0.50900  -0.34404  -0.34106
 Alpha  occ. eigenvalues --   -0.09563
 Alpha virt. eigenvalues --    0.05051   0.05148   0.05577   0.06885   0.07134
 Alpha virt. eigenvalues --    0.08528   0.09302   0.09710   0.10328   0.10528
 Alpha virt. eigenvalues --    0.10821   0.12096   0.12602   0.12623   0.13098

 Mulliken charges and spin densities:
               1          2
     1  C   -0.006361   0.914660
     2  C   -0.155795   0.018037
     3  C   -0.155795   0.018037
     4  C   -0.142586   0.016447
     5  C   -0.142586   0.016447
     6  C   -0.178638   0.001591
     7  H    0.169983   0.004589
     8  H    0.169983   0.004589
     9  H    0.147848   0.002715
    10  H    0.147848   0.002715
    11  H    0.146100   0.000174
 Sum of Mulliken charges =  -0.00000   1.00000

 Dipole moment (field-independent basis, Debye):
    X=             -0.0000    Y=             -0.0000    Z=             -0.7380  Tot=              0.7380
 Quadrupole moment (field-independent basis, Debye-Ang):
   XX=            -39.9515   YY=            -30.2549   ZZ=            -34.0562
   XY=              0.0000   XZ=             -0.0000   YZ=              0.0000

 Normal termination of Gaussian 16 at Thu Sep 28 17:51:54 2023.
