 Gaussian 16, Revision B.01,

 ---------------------------------------
 # b3lyp/gen opt freq CPHF(Grid=OneStep)
 ---------------------------------------

 ---------------------
 tropyl, B3LYP/pcseg-2
 ---------------------
 Symbolic Z-matrix:
 Charge =  0 Multiplicity = 2

 SCF Done:  E(UB3LYP) =  -270.994009302     A.U. after   16 cycles
 Optimization completed.
    -- Stationary point found.
 Normal termination of Gaussian 16 at Thu Sep 28 23:37:16 2023.

 ------------------------------------------------------------------
 #N Geom=AllCheck Guess=TCheck SCRF=Check GenChk UB3LYP/ChkBas Freq
 ------------------------------------------------------------------

 Structure from the checkpoint file:  "c7h7.chk"
 ---------------------
 tropyl, B3LYP/pcseg-2
 ---------------------
 Charge =  0 Multiplicity = 2

 SCF Done:  E(UB3LYP) =  -270.994009302     A.U. after    1 cycles

  Exact polarizability:  99.386  -0.042  99.388   0.000   0.000  45.900
 Approx polarizability: 163.176  -0.097 163.237  -0.000  -0.000  70.626

                      1                      2                      3
                     A'                     A"                     A"
 Frequencies --     63.8452               152.0143               290.0053
 Red. masses --      8.8522                 2.7343                 3.1757
 Frc consts  --      0.0213                 0.0372                 0.1574
 IR Inten    --     25.8983                 0.0001                 0.0001

                      4                      5                      6
                     A'                     A'                     A"
 Frequencies --    421.2080               448.2017               519.3879
 Red. masses --      6.7618                 6.6525                 2.1322
 Frc consts  --      0.7068                 0.7874                 0.3389
 IR Inten    --      0.2661                 0.2214                37.3120

                      7                      8                      9
                     A"                     A"                     A"
 Frequencies --    566.7056               650.5316               766.5765
 Red. masses --      2.7733                 1.2060                 1.2882
 Frc consts  --      0.5248                 0.3007                 0.4460
 IR Inten    --      0.0001                84.9302                 0.8594

                     10                     11                     12
                     A"                     A'                     A"
 Frequencies --    773.6688               846.8800               853.9888
 Red. masses --      1.2996                 6.2983                 1.4287
 Frc consts  --      0.4583                 2.6615                 0.6139
 IR Inten    --      0.4076                 0.1919                 0.0091

                     13                     14                     15
                     A'                     A'                     A'
 Frequencies --    909.5793               917.9049               962.0521
 Red. masses --      5.6600                 5.4646                 2.4852
 Frc consts  --      2.7590                 2.7127                 1.3552
 IR Inten    --      1.1068                 0.7901                 3.5173

                     16                     17                     18
                     A'                     A"                     A"
 Frequencies --    969.1997               994.1366              1002.9824
 Red. masses --      2.4643                 1.3253                 1.3144
 Frc consts  --      1.3638                 0.7717                 0.7791
 IR Inten    --      6.5446                 0.4200                 0.0003

                     19                     20                     21
                     A"                     A'                     A'
 Frequencies --   1016.7870              1188.1879              1244.3143
 Red. masses --      1.3109                 1.4591                 1.2230
 Frc consts  --      0.7985                 1.2137                 1.1157
 IR Inten    --      0.0015                 2.5451                 2.7063

                     22                     23                     24
                     A'                     A'                     A'
 Frequencies --   1288.0038              1308.1272              1423.2112
 Red. masses --      1.0614                 1.0631                 1.2204
 Frc consts  --      1.0374                 1.0718                 1.4564
 IR Inten    --      0.9464                 0.1259                 0.0068

                     25                     26                     27
                     A'                     A'                     A'
 Frequencies --   1479.8573              1486.0429              1548.6310
 Red. masses --      1.5218                 1.5081                 2.5536
 Frc consts  --      1.9636                 1.9622                 3.6082
 IR Inten    --      5.7443                 2.1626                 8.8096

                     28                     29                     30
                     A'                     A'                     A'
 Frequencies --   1596.7631              1645.1688              3134.6021
 Red. masses --      5.9585                 4.2341                 1.0846
 Frc consts  --      8.9510                 6.7520                 6.2791
 IR Inten    --     12.1096                 3.2863                 5.0249

                     31                     32                     33
                     A'                     A'                     A'
 Frequencies --   3135.4698              3141.7623              3158.1269
 Red. masses --      1.0824                 1.0856                 1.0894
 Frc consts  --      6.2698                 6.3133                 6.4017
 IR Inten    --      6.2998                 2.5704                16.1832

                     34                     35                     36
                     A'                     A'                     A'
 Frequencies --   3172.8554              3175.1809              3183.4810
 Red. masses --      1.0903                 1.0892                 1.0924
 Frc consts  --      6.4667                 6.4701                 6.5228
 IR Inten    --     37.7983                26.5459                 3.8821

 - Thermochemistry -
 -------------------
 Temperature   298.150 Kelvin.  Pressure   1.00000 Atm.
 Atom     1 has atomic number  6 and mass  12.00000

 Molecular mass:    91.05478 amu.
 Principal axes and moments of inertia in atomic units:
                           1         2         3
     Eigenvalues --   482.61867 482.64453 965.26320
           X            0.99599   0.08945   0.00000
           Y           -0.08945   0.99599   0.00000
           Z           -0.00000   0.00000   1.00000
 This molecule is an asymmetric top.
 Rotational symmetry number  1.
 Warning -- assumption of classical behavior for rotation
           may cause significant error
 Rotational temperatures (Kelvin)      0.17947     0.17946     0.08973
 Rotational constants (GHZ):           3.73948     3.73928     1.86969
 Zero-point vibrational energy     295689.6 (Joules/Mol)
                                   70.67151 (Kcal/Mol)
 Warning -- explicit consideration of   7 degrees of freedom as
           vibrations may cause significant error
 Vibrational temperatures:     91.86   218.71   417.25   606.02   644.86
          (Kelvin)            747.28   815.36   935.97  1102.93  1113.14
                             1218.47  1228.70  1308.68  1320.66  1384.18
                             1394.46  1430.34  1443.07  1462.93  1709.54
                             1790.29  1853.15  1882.10  2047.68  2129.18
                             2138.08  2228.13  2297.39  2367.03  4509.99
                             4511.24  4520.30  4543.84  4565.03  4568.38
                             4580.32

 Zero-point correction=                           0.112622 (Hartree/Particle)
 Thermal correction to Energy=                    0.119094
 Thermal correction to Enthalpy=                  0.120038
 Thermal correction to Gibbs Free Energy=         0.081494
 Sum of electronic and zero-point Energies=           -270.881387
 Sum of electronic and thermal Energies=              -270.874916
 Sum of electronic and thermal Enthalpies=            -270.873971
 Sum of electronic and thermal Free Energies=         -270.912516

                     E (Thermal)             CV                S
                      KCal/Mol        Cal/Mol-Kelvin    Cal/Mol-Kelvin
 Total                   74.732             24.117             81.123
 Electronic               0.000              0.000              1.377
 Translational            0.889              2.981             39.439
 Rotational               0.889              2.981             26.911
 Vibrational             72.955             18.155             13.396
 Vibration     1          0.597              1.972              4.335
 Vibration     2          0.619              1.900              2.647
 Vibration     3          0.686              1.692              1.474
 Vibration     4          0.784              1.424              0.888
 Vibration     5          0.807              1.365              0.801
 Vibration     6          0.874              1.207              0.611
 Vibration     7          0.923              1.103              0.511

 Optimization completed.
    -- Stationary point found.
 Normal termination of Gaussian 16 at Fri Sep 29 00:04:45 2023.
 Gaussian 16:  ES64L-G16RevB.01 20-Dec-2017

 ---------------------------------
 # rohf/gen geom=check guess=check
 ---------------------------------

 ------------------------
 tropyl, ROHF/cc-pVTZ-F12
 ------------------------
 Structure from the checkpoint file:  "c7h7.chk"
 Charge =  0 Multiplicity = 2

                         Standard orientation:
 ---------------------------------------------------------------------
 Center     Atomic      Atomic             Coordinates (Angstroms)
 Number     Number       Type             X           Y           Z
 ---------------------------------------------------------------------
      1          6           0       -0.730399   -1.440086    0.000000
      2          6           0       -1.568384   -0.374903    0.000000
      3          6           0        0.716468   -1.451137    0.000000
      4          6           0       -1.250007    1.029698    0.000000
      5          6           0        1.563283   -0.378672    0.000000
      6          6           0        0.000000    1.607284    0.000000
      7          6           0        1.269019    1.007779    0.000000
      8          1           0       -1.196006   -2.418542    0.000000
      9          1           0       -2.628407   -0.602289    0.000000
     10          1           0        1.173911   -2.432190    0.000000
     11          1           0       -2.097067    1.702924    0.000000
     12          1           0        2.621276   -0.619332    0.000000
     13          1           0        0.007924    2.692492    0.000000
     14          1           0        2.118482    1.677154    0.000000
 ---------------------------------------------------------------------

 SCF Done:  E(ROHF) =  -269.181265863     A.U. after   17 cycles

 The electronic state is 2-A".
 Alpha  occ. eigenvalues --  -11.25202 -11.24958 -11.24344 -11.24052 -11.23453
 Alpha  occ. eigenvalues --  -11.23150 -11.22529  -1.13023  -1.04491  -1.04443
 Alpha  occ. eigenvalues --   -0.89512  -0.88042  -0.71685  -0.71638  -0.70318
 Alpha  occ. eigenvalues --   -0.61539  -0.61491  -0.54865  -0.54793  -0.50375
 Alpha  occ. eigenvalues --   -0.48537  -0.48422  -0.36682  -0.36425  -0.05271
 Alpha virt. eigenvalues --    0.05140   0.05144   0.05206   0.05426   0.06802
 Alpha virt. eigenvalues --    0.06836   0.08711   0.09025   0.09034   0.10499
 Alpha virt. eigenvalues --    0.10507   0.12438   0.12440   0.12594   0.13341

 Mulliken charges and spin densities:
               1          2
     1  C   -0.130553   0.076408
     2  C   -0.124156   0.054021
     3  C   -0.150929   0.171497
     4  C   -0.161203   0.231067
     5  C   -0.110871   0.029840
     6  C   -0.104587   0.027626
     7  C   -0.171220   0.381558
     8  H    0.135984   0.002439
     9  H    0.136002   0.001556
    10  H    0.136020   0.005423
    11  H    0.135934   0.006992
    12  H    0.137238   0.000449
    13  H    0.137782   0.000282
    14  H    0.134559   0.010841
 Sum of Mulliken charges =  -0.00000   1.00000

 Dipole moment (field-independent basis, Debye):
    X=             -0.0230    Y=             -0.0332    Z=              0.0000  Tot=              0.0404
 Quadrupole moment (field-independent basis, Debye-Ang):
   XX=            -37.7027   YY=            -37.6438   ZZ=            -47.8542
   XY=             -0.0128   XZ=              0.0000   YZ=              0.0000

 Normal termination of Gaussian 16 at Fri Sep 29 00:20:16 2023.
