 Gaussian 16, Revision B.01,
 Gaussian 16:  ES64L-G16RevB.01 20-Dec-2017

 --------------------
 # b3lyp/gen opt freq
 --------------------

 ---------------------
 tropyl, B3LYP/pcseg-2
 ---------------------
 Symbolic Z-matrix:
 Charge =  0 Multiplicity = 2

 SCF Done:  E(UB3LYP) =  -270.993686928     A.U. after   15 cycles
 SCF Done:  E(UB3LYP) =  -270.993985239     A.U. after   11 cycles
 SCF Done:  E(UB3LYP) =  -270.994009328     A.U. after   10 cycles
 Optimization completed.
    -- Stationary point found.
 Normal termination of Gaussian 16 at Thu Jun 16 11:56:18 2022.

 ------------------------------------------------------------------
 #N Geom=AllCheck Guess=TCheck SCRF=Check GenChk UB3LYP/ChkBas Freq
 ------------------------------------------------------------------

 Structure from the checkpoint file:  "/wrk/irikura/Gau-21398.chk"
 ---------------------
 tropyl, B3LYP/pcseg-2
 ---------------------
 Charge =  0 Multiplicity = 2

                         Standard orientation:
 ---------------------------------------------------------------------
 Center     Atomic      Atomic             Coordinates (Angstroms)
 Number     Number       Type             X           Y           Z
 ---------------------------------------------------------------------
      1          6           0        0.000000   -0.000000    1.620647
      2          6           0        0.000000    1.263343    0.993967
      3          6           0       -0.000000   -1.263343    0.993967
      4          6           0        0.000000    1.582941   -0.340080
      5          6           0       -0.000000   -1.582941   -0.340080
      6          6           0        0.000000    0.677693   -1.464249
      7          6           0       -0.000000   -0.677693   -1.464249
      8          1           0        0.000000   -0.000000    2.701909
      9          1           0        0.000000    2.109051    1.673725
     10          1           0       -0.000000   -2.109051    1.673725
     11          1           0        0.000000    2.636224   -0.587746
     12          1           0       -0.000000   -2.636224   -0.587746
     13          1           0        0.000000    1.155978   -2.436699
     14          1           0       -0.000000   -1.155978   -2.436699
 ---------------------------------------------------------------------

 SCF Done:  E(UB3LYP) =  -270.994009328     A.U. after    1 cycles

 The electronic state is 2-B1.
 Alpha  occ. eigenvalues --  -10.18988 -10.18988 -10.18605 -10.18527 -10.17850
 Alpha  occ. eigenvalues --  -10.17850 -10.17471  -0.84690  -0.77952  -0.77940
 Alpha  occ. eigenvalues --   -0.66962  -0.65305  -0.52882  -0.52869  -0.52485
 Alpha  occ. eigenvalues --   -0.45080  -0.45068  -0.39541  -0.39476  -0.37804
 Alpha  occ. eigenvalues --   -0.35853  -0.34225  -0.30051  -0.30047  -0.15137
 Alpha virt. eigenvalues --   -0.07550   0.00890   0.03253   0.03256   0.06564
 Alpha virt. eigenvalues --    0.06616   0.09070   0.09152   0.10089   0.10130
 Alpha virt. eigenvalues --    0.15799   0.16106   0.18836   0.18845   0.19486

  Beta  occ. eigenvalues --  -10.19178 -10.19178 -10.18480 -10.18403 -10.17339
  Beta  occ. eigenvalues --  -10.17338 -10.16792  -0.84000  -0.77248  -0.77232
  Beta  occ. eigenvalues --   -0.65643  -0.65191  -0.52610  -0.52433  -0.52122
  Beta  occ. eigenvalues --   -0.44906  -0.44892  -0.39261  -0.39203  -0.35971
  Beta  occ. eigenvalues --   -0.35544  -0.34124  -0.27918  -0.27903
  Beta virt. eigenvalues --   -0.07458  -0.07069   0.00931   0.03273   0.03277
  Beta virt. eigenvalues --    0.06607   0.06639   0.10161   0.10197   0.11097
  Beta virt. eigenvalues --    0.11130   0.16074   0.16617   0.18854   0.18863

 Mulliken charges and spin densities:
               1          2
     1  C   -0.077476   0.476272
     2  C    0.016044  -0.137673
     3  C    0.016044  -0.137673
     4  C   -0.058197   0.352612
     5  C   -0.058197   0.352612
     6  C   -0.015887   0.077246
     7  C   -0.015887   0.077246
     8  H    0.024530  -0.024084
     9  H    0.030072   0.005223
    10  H    0.030072   0.005223
    11  H    0.025912  -0.018317
    12  H    0.025912  -0.018317
    13  H    0.028529  -0.005185
    14  H    0.028529  -0.005185
 Sum of Mulliken charges =  -0.00000   1.00000

 Dipole moment (field-independent basis, Debye):
    X=              0.0000    Y=              0.0000    Z=             -0.0681  Tot=              0.0681
 Quadrupole moment (field-independent basis, Debye-Ang):
   XX=            -46.8006   YY=            -37.8609   ZZ=            -37.8563
   XY=              0.0000   XZ=             -0.0000   YZ=              0.0000

  Exact polarizability:  45.901   0.000  99.435   0.000   0.000  99.337
 Approx polarizability:  70.629   0.000 163.381   0.000   0.000 163.141

 ******    1 imaginary frequencies (negative Signs) ******

                      1                      2                      3
                     B2                     B1                     A2
 Frequencies --   -160.9323               150.8777               290.3769
 Red. masses --      8.9095                 2.7330                 3.1711
 Frc consts  --      0.1360                 0.0367                 0.1575
 IR Inten    --     25.6766                 0.0001                 0.0000

                      4                      5                      6
                     A1                     B2                     B1
 Frequencies --    421.1003               448.3054               518.8699
 Red. masses --      6.7594                 6.6514                 2.1220
 Frc consts  --      0.7062                 0.7876                 0.3366
 IR Inten    --      0.2623                 0.2190                37.8078

                      7                      8                      9
                     A2                     B1                     B1
 Frequencies --    566.7328               649.6905               766.1257
 Red. masses --      2.7725                 1.2076                 1.2929
 Frc consts  --      0.5247                 0.3003                 0.4471
 IR Inten    --      0.0000                84.4611                 1.3141

                     10                     11                     12
                     A2                     A1                     B1
 Frequencies --    772.2885               847.5519               853.2364
 Red. masses --      1.2947                 6.2958                 1.4292
 Frc consts  --      0.4550                 2.6646                 0.6130
 IR Inten    --      0.0000                 0.1906                 0.0111

                     13                     14                     15
                     B2                     A1                     A1
 Frequencies --    909.7091               917.8302               964.3315
 Red. masses --      5.6574                 5.4649                 2.4701
 Frc consts  --      2.7585                 2.7124                 1.3534
 IR Inten    --      1.1049                 0.8079                 2.9357

                     16                     17                     18
                     B2                     B1                     A2
 Frequencies --    967.6491               993.7305              1002.2094
 Red. masses --      2.4696                 1.3259                 1.3158
 Frc consts  --      1.3625                 0.7714                 0.7787
 IR Inten    --      7.0205                 0.4273                 0.0000

                     19                     20                     21
                     A2                     B2                     A1
 Frequencies --   1016.2426              1188.4520              1243.7831
 Red. masses --      1.3119                 1.4548                 1.2252
 Frc consts  --      0.7982                 1.2106                 1.1167
 IR Inten    --      0.0000                 2.3752                 2.9682

                     22                     23                     24
                     A1                     B2                     B2
 Frequencies --   1287.7955              1307.7508              1423.0236
 Red. masses --      1.0615                 1.0627                 1.2204
 Frc consts  --      1.0372                 1.0708                 1.4560
 IR Inten    --      0.9209                 0.1188                 0.0067

                     25                     26                     27
                     A1                     B2                     B2
 Frequencies --   1481.0027              1484.8640              1551.4827
 Red. masses --      1.5281                 1.5077                 2.4916
 Frc consts  --      1.9748                 1.9586                 3.5336
 IR Inten    --      6.7412                 1.3886                 7.0116

                     28                     29                     30
                     A1                     A1                     A1
 Frequencies --   1591.9320              1645.7754              3135.8126
 Red. masses --      6.1665                 4.2985                 1.0846
 Frc consts  --      9.2074                 6.8597                 6.2840
 IR Inten    --     15.1034                 2.2451                 4.5761

                     31                     32                     33
                     B2                     B2                     A1
 Frequencies --   3136.5741              3143.1040              3159.7192
 Red. masses --      1.0829                 1.0852                 1.0895
 Frc consts  --      6.2767                 6.3164                 6.4089
 IR Inten    --      7.6679                 2.1343                16.8301

                     34                     35                     36
                     B2                     A1                     A1
 Frequencies --   3175.1050              3176.8202              3185.4257
 Red. masses --      1.0898                 1.0895                 1.0923
 Frc consts  --      6.4733                 6.4786                 6.5300
 IR Inten    --     39.0299                23.7104                 4.2004

 - Thermochemistry -
 -------------------
 Temperature   298.150 Kelvin.  Pressure   1.00000 Atm.
 Atom     1 has atomic number  6 and mass  12.00000

 Molecular mass:    91.05478 amu.
 Principal axes and moments of inertia in atomic units:
                           1         2         3
     Eigenvalues --   482.55718 482.56351 965.12068
           X            0.00000   0.00000   1.00000
           Y            1.00000   0.00000  -0.00000
           Z           -0.00000   1.00000  -0.00000
 This molecule is an asymmetric top.
 Rotational symmetry number  2.
 Warning -- assumption of classical behavior for rotation
           may cause significant error
 Rotational temperatures (Kelvin)      0.17949     0.17949     0.08974
 Rotational constants (GHZ):           3.73995     3.73990     1.86996
    1 imaginary frequencies ignored.
 Zero-point vibrational energy     295329.8 (Joules/Mol)
                                   70.58551 (Kcal/Mol)
 Warning -- explicit consideration of   6 degrees of freedom as
           vibrations may cause significant error
 Vibrational temperatures:    217.08   417.79   605.87   645.01   746.54
          (Kelvin)            815.40   934.76  1102.28  1111.15  1219.44
                             1227.62  1308.87  1320.55  1387.46  1392.23
                             1429.76  1441.96  1462.15  1709.92  1789.53
                             1852.85  1881.56  2047.41  2130.83  2136.39
                             2232.24  2290.44  2367.90  4511.73  4512.83
                             4522.23  4546.13  4568.27  4570.74  4583.12

 Zero-point correction=                           0.112485 (Hartree/Particle)
 Thermal correction to Energy=                    0.118153
 Thermal correction to Enthalpy=                  0.119098
 Thermal correction to Gibbs Free Energy=         0.083260
 Sum of electronic and zero-point Energies=           -270.881524
 Sum of electronic and thermal Energies=              -270.875856
 Sum of electronic and thermal Enthalpies=            -270.874912
 Sum of electronic and thermal Free Energies=         -270.910750

                     E (Thermal)             CV                S
                      KCal/Mol        Cal/Mol-Kelvin    Cal/Mol-Kelvin
 Total                   74.142             22.154             75.427
 Electronic               0.000              0.000              1.377
 Translational            0.889              2.981             39.439
 Rotational               0.889              2.981             25.533
 Vibrational             72.365             16.192              9.078
 Vibration     1          0.618              1.902              2.661
 Vibration     2          0.686              1.692              1.472
 Vibration     3          0.784              1.424              0.888
 Vibration     4          0.807              1.365              0.801
 Vibration     5          0.874              1.208              0.613
 Vibration     6          0.923              1.103              0.511

 Optimization completed.
    -- Stationary point found.
 Normal termination of Gaussian 16 at Thu Jun 16 12:01:55 2022.
