 Gaussian 16, Revision B.01,
 Gaussian 16:  ES64L-G16RevB.01 20-Dec-2017

 ---------------------------------------
 # b3lyp/gen opt freq CPHF(Grid=OneStep)
 ---------------------------------------

 -----------------------------------------------
 tropyl, B3LYP/pcseg-2, Cs symm to get a minimum
 -----------------------------------------------
 Symbolic Z-matrix:
 Charge =  0 Multiplicity = 2

 SCF Done:  E(UB3LYP) =  -270.586489339     A.U. after   16 cycles
 SCF Done:  E(UB3LYP) =  -270.804401512     A.U. after   14 cycles
 SCF Done:  E(UB3LYP) =  -270.951126770     A.U. after   19 cycles
 SCF Done:  E(UB3LYP) =  -270.988350814     A.U. after   18 cycles
 SCF Done:  E(UB3LYP) =  -270.993354983     A.U. after   17 cycles
 SCF Done:  E(UB3LYP) =  -270.993685433     A.U. after   16 cycles
 SCF Done:  E(UB3LYP) =  -270.993965137     A.U. after   16 cycles
 SCF Done:  E(UB3LYP) =  -270.993992504     A.U. after   13 cycles
 SCF Done:  E(UB3LYP) =  -270.994006837     A.U. after   12 cycles
 SCF Done:  E(UB3LYP) =  -270.994008802     A.U. after   12 cycles
 SCF Done:  E(UB3LYP) =  -270.994009302     A.U. after   11 cycles
 Optimization completed.
    -- Stationary point found.
 Normal termination of Gaussian 16 at Fri Sep 15 22:40:46 2023.

 ------------------------------------------------------------------
 #N Geom=AllCheck Guess=TCheck SCRF=Check GenChk UB3LYP/ChkBas Freq
 ------------------------------------------------------------------

 Structure from the checkpoint file:  "/wrk/irikura/Gau-62488.chk"
 -----------------------------------------------
 tropyl, B3LYP/pcseg-2, Cs symm to get a minimum
 -----------------------------------------------
 Charge =  0 Multiplicity = 2

                         Standard orientation:
 ---------------------------------------------------------------------
 Center     Atomic      Atomic             Coordinates (Angstroms)
 Number     Number       Type             X           Y           Z
 ---------------------------------------------------------------------
      1          6           0       -0.730399   -1.440086    0.000000
      2          6           0       -1.568384   -0.374903   -0.000000
      3          6           0        0.716468   -1.451137    0.000000
      4          6           0       -1.250007    1.029698   -0.000000
      5          6           0        1.563283   -0.378672    0.000000
      6          6           0        0.000000    1.607284   -0.000000
      7          6           0        1.269019    1.007779    0.000000
      8          1           0       -1.196006   -2.418542    0.000000
      9          1           0       -2.628407   -0.602289   -0.000000
     10          1           0        1.173911   -2.432190    0.000000
     11          1           0       -2.097067    1.702924   -0.000000
     12          1           0        2.621276   -0.619332    0.000000
     13          1           0        0.007924    2.692492   -0.000000
     14          1           0        2.118482    1.677154    0.000000
 ---------------------------------------------------------------------

 SCF Done:  E(UB3LYP) =  -270.994009302     A.U. after    1 cycles

 The electronic state is 2-A".
 Alpha  occ. eigenvalues --  -10.19012 -10.18945 -10.18675 -10.18452 -10.17972
 Alpha  occ. eigenvalues --  -10.17751 -10.17491  -0.84686  -0.77950  -0.77937
 Alpha  occ. eigenvalues --   -0.66965  -0.65293  -0.52878  -0.52865  -0.52480
 Alpha  occ. eigenvalues --   -0.45078  -0.45065  -0.39539  -0.39472  -0.37802
 Alpha  occ. eigenvalues --   -0.35856  -0.34215  -0.30052  -0.30047  -0.15150
 Alpha virt. eigenvalues --   -0.07538   0.00889   0.03251   0.03255   0.06563
 Alpha virt. eigenvalues --    0.06615   0.09069   0.09150   0.10086   0.10128
 Alpha virt. eigenvalues --    0.15802   0.16106   0.18835   0.18843   0.19485

  Beta  occ. eigenvalues --  -10.19228 -10.19101 -10.18614 -10.18262 -10.17516
  Beta  occ. eigenvalues --  -10.17189 -10.16815  -0.83996  -0.77246  -0.77230
  Beta  occ. eigenvalues --   -0.65644  -0.65178  -0.52605  -0.52429  -0.52119
  Beta  occ. eigenvalues --   -0.44904  -0.44889  -0.39259  -0.39199  -0.35969
  Beta  occ. eigenvalues --   -0.35546  -0.34114  -0.27919  -0.27904
  Beta virt. eigenvalues --   -0.07445  -0.07077   0.00930   0.03272   0.03276
  Beta virt. eigenvalues --    0.06606   0.06638   0.10159   0.10195   0.11094
  Beta virt. eigenvalues --    0.11128   0.16077   0.16618   0.18852   0.18862

 Mulliken charges and spin densities:
               1          2
     1  C   -0.023148   0.124648
     2  C   -0.009251   0.031062
     3  C   -0.051657   0.312106
     4  C   -0.063345   0.388887
     5  C    0.012154  -0.114608
     6  C    0.017793  -0.154879
     7  C   -0.076381   0.473439
     8  H    0.028163  -0.007468
     9  H    0.028918  -0.002955
    10  H    0.026397  -0.016409
    11  H    0.025603  -0.020022
    12  H    0.029914   0.004102
    13  H    0.030169   0.006053
    14  H    0.024671  -0.023959
 Sum of Mulliken charges =  -0.00000   1.00000

 Dipole moment (field-independent basis, Debye):
    X=             -0.0397    Y=             -0.0575    Z=              0.0000  Tot=              0.0698
 Quadrupole moment (field-independent basis, Debye-Ang):
   XX=            -37.8573   YY=            -37.8593   ZZ=            -46.8016
   XY=              0.0017   XZ=             -0.0000   YZ=              0.0000

  Exact polarizability:  99.386  -0.042  99.388   0.000  -0.000  45.900
 Approx polarizability: 163.176  -0.097 163.237   0.000  -0.000  70.626

                      1                      2                      3
                     A'                     A"                     A"
 Frequencies --     64.0915               152.0144               290.0052
 Red. masses --      8.8521                 2.7343                 3.1757
 Frc consts  --      0.0214                 0.0372                 0.1574
 IR Inten    --     25.8986                 0.0001                 0.0001

                      4                      5                      6
                     A'                     A'                     A"
 Frequencies --    421.2083               448.2014               519.3888
 Red. masses --      6.7618                 6.6525                 2.1322
 Frc consts  --      0.7068                 0.7874                 0.3389
 IR Inten    --      0.2661                 0.2214                37.3122

                      7                      8                      9
                     A"                     A"                     A"
 Frequencies --    566.7048               650.5309               766.5758
 Red. masses --      2.7733                 1.2060                 1.2882
 Frc consts  --      0.5248                 0.3007                 0.4460
 IR Inten    --      0.0001                84.9298                 0.8596

                     10                     11                     12
                     A"                     A'                     A"
 Frequencies --    773.6678               846.8796               853.9887
 Red. masses --      1.2996                 6.2983                 1.4287
 Frc consts  --      0.4583                 2.6615                 0.6139
 IR Inten    --      0.4076                 0.1919                 0.0091

                     13                     14                     15
                     A'                     A'                     A'
 Frequencies --    909.5797               917.9046               962.0518
 Red. masses --      5.6600                 5.4646                 2.4852
 Frc consts  --      2.7590                 2.7127                 1.3552
 IR Inten    --      1.1069                 0.7901                 3.5174

                     16                     17                     18
                     A'                     A"                     A"
 Frequencies --    969.1995               994.1365              1002.9833
 Red. masses --      2.4643                 1.3253                 1.3144
 Frc consts  --      1.3638                 0.7717                 0.7791
 IR Inten    --      6.5446                 0.4199                 0.0003

                     19                     20                     21
                     A"                     A'                     A'
 Frequencies --   1016.7878              1188.1872              1244.3148
 Red. masses --      1.3109                 1.4591                 1.2230
 Frc consts  --      0.7985                 1.2137                 1.1157
 IR Inten    --      0.0015                 2.5451                 2.7063

                     22                     23                     24
                     A'                     A'                     A'
 Frequencies --   1288.0047              1308.1264              1423.2111
 Red. masses --      1.0614                 1.0631                 1.2204
 Frc consts  --      1.0374                 1.0718                 1.4564
 IR Inten    --      0.9463                 0.1259                 0.0068

                     25                     26                     27
                     A'                     A'                     A'
 Frequencies --   1479.8566              1486.0434              1548.6302
 Red. masses --      1.5218                 1.5081                 2.5536
 Frc consts  --      1.9636                 1.9622                 3.6082
 IR Inten    --      5.7446                 2.1624                 8.8095

                     28                     29                     30
                     A'                     A'                     A'
 Frequencies --   1596.7630              1645.1707              3134.6019
 Red. masses --      5.9585                 4.2342                 1.0846
 Frc consts  --      8.9509                 6.7521                 6.2791
 IR Inten    --     12.1092                 3.2862                 5.0237

                     31                     32                     33
                     A'                     A'                     A'
 Frequencies --   3135.4678              3141.7589              3158.1265
 Red. masses --      1.0824                 1.0856                 1.0894
 Frc consts  --      6.2698                 6.3133                 6.4017
 IR Inten    --      6.3028                 2.5720                16.1880

                     34                     35                     36
                     A'                     A'                     A'
 Frequencies --   3172.8587              3175.1827              3183.4841
 Red. masses --      1.0903                 1.0892                 1.0924
 Frc consts  --      6.4667                 6.4701                 6.5228
 IR Inten    --     37.7990                26.5337                 3.8854

 - Thermochemistry -
 -------------------
 Temperature   298.150 Kelvin.  Pressure   1.00000 Atm.
 Atom     1 has atomic number  6 and mass  12.00000

 Molecular mass:    91.05478 amu.
 Principal axes and moments of inertia in atomic units:
                           1         2         3
     Eigenvalues --   482.61864 482.64458 965.26322
           X            0.99609   0.08833   0.00000
           Y           -0.08833   0.99609   0.00000
           Z            0.00000  -0.00000   1.00000
 This molecule is an asymmetric top.
 Rotational symmetry number  1.
 Warning -- assumption of classical behavior for rotation
           may cause significant error
 Rotational temperatures (Kelvin)      0.17947     0.17946     0.08973
 Rotational constants (GHZ):           3.73948     3.73928     1.86969
 Zero-point vibrational energy     295691.1 (Joules/Mol)
                                   70.67187 (Kcal/Mol)
 Warning -- explicit consideration of   7 degrees of freedom as
           vibrations may cause significant error
 Vibrational temperatures:     92.21   218.71   417.25   606.02   644.86
          (Kelvin)            747.28   815.36   935.97  1102.93  1113.14
                             1218.47  1228.70  1308.68  1320.66  1384.18
                             1394.46  1430.34  1443.07  1462.93  1709.54
                             1790.29  1853.15  1882.10  2047.68  2129.18
                             2138.08  2228.13  2297.39  2367.03  4509.99
                             4511.24  4520.29  4543.84  4565.04  4568.38
                             4580.32

 Zero-point correction=                           0.112623 (Hartree/Particle)
 Thermal correction to Energy=                    0.119094
 Thermal correction to Enthalpy=                  0.120038
 Thermal correction to Gibbs Free Energy=         0.081497
 Sum of electronic and zero-point Energies=           -270.881387
 Sum of electronic and thermal Energies=              -270.874916
 Sum of electronic and thermal Enthalpies=            -270.873971
 Sum of electronic and thermal Free Energies=         -270.912512

                     E (Thermal)             CV                S
                      KCal/Mol        Cal/Mol-Kelvin    Cal/Mol-Kelvin
 Total                   74.732             24.117             81.116
 Electronic               0.000              0.000              1.377
 Translational            0.889              2.981             39.439
 Rotational               0.889              2.981             26.911
 Vibrational             72.955             18.155             13.389
 Vibration     1          0.597              1.971              4.327
 Vibration     2          0.619              1.900              2.647
 Vibration     3          0.686              1.692              1.474
 Vibration     4          0.784              1.424              0.888
 Vibration     5          0.807              1.365              0.801
 Vibration     6          0.874              1.207              0.611
 Vibration     7          0.923              1.103              0.511

 Optimization completed.
    -- Stationary point found.
 Normal termination of Gaussian 16 at Fri Sep 15 22:51:18 2023.
