 Gaussian 16, Revision B.01,

 ---------------------------------------
 # b3lyp/gen opt freq CPHF(Grid=OneStep)
 ---------------------------------------

 ---------------------------------
 dichlorovinylidene, B3LYP/pcseg-2
 ---------------------------------
 Symbolic Z-matrix:
 Charge =  0 Multiplicity = 1

 SCF Done:  E(RB3LYP) =  -996.541902137     A.U. after   13 cycles
 Optimization completed.
    -- Stationary point found.
 Normal termination of Gaussian 16 at Fri Sep 29 01:01:04 2023.

 ------------------------------------------------------------------
 #N Geom=AllCheck Guess=TCheck SCRF=Check GenChk RB3LYP/ChkBas Freq
 ------------------------------------------------------------------

 Structure from the checkpoint file:  "cccl2.chk"
 ---------------------------------
 dichlorovinylidene, B3LYP/pcseg-2
 ---------------------------------
 Charge =  0 Multiplicity = 1

 SCF Done:  E(RB3LYP) =  -996.541902137     A.U. after    1 cycles

  Exact polarizability:  27.804   0.000  55.008   0.000  -0.000  50.902
 Approx polarizability:  41.984   0.000  88.383   0.000  -0.000  88.408

                      1                      2                      3
                     B2                     A1                     B1
 Frequencies --    102.8940               263.5392               412.1506
 Red. masses --     14.1122                23.4614                12.4321
 Frc consts  --      0.0880                 0.9601                 1.2442
 IR Inten    --     15.7702                 0.0344                 0.0195

                      4                      5                      6
                     A1                     B2                     A1
 Frequencies --    584.0246               843.6749              1652.4654
 Red. masses --     18.0217                14.0232                12.0240
 Frc consts  --      3.6217                 5.8810                19.3447
 IR Inten    --      7.9176               134.6624                14.1905

 - Thermochemistry -
 -------------------
 Temperature   298.150 Kelvin.  Pressure   1.00000 Atm.
 Atom     1 has atomic number  6 and mass  12.00000

 Molecular mass:    93.93771 amu.
 Principal axes and moments of inertia in atomic units:
                           1         2         3
     Eigenvalues --   179.54980 566.04357 745.59337
           X            0.00000   0.00000   1.00000
           Y            1.00000   0.00000   0.00000
           Z            0.00000   1.00000   0.00000
 This molecule is an asymmetric top.
 Rotational symmetry number  2.
 Rotational temperatures (Kelvin)      0.48239     0.15302     0.11617
 Rotational constants (GHZ):          10.05148     3.18834     2.42054
 Zero-point vibrational energy      23080.4 (Joules/Mol)
                                    5.51636 (Kcal/Mol)
 Warning -- explicit consideration of   4 degrees of freedom as
           vibrations may cause significant error
 Vibrational temperatures:    148.04   379.17   592.99   840.28  1213.86
          (Kelvin)           2377.53

 Zero-point correction=                           0.008791 (Hartree/Particle)
 Thermal correction to Energy=                    0.013356
 Thermal correction to Enthalpy=                  0.014300
 Thermal correction to Gibbs Free Energy=        -0.019243
 Sum of electronic and zero-point Energies=           -996.533111
 Sum of electronic and thermal Energies=              -996.528546
 Sum of electronic and thermal Enthalpies=            -996.527602
 Sum of electronic and thermal Free Energies=         -996.561146

                     E (Thermal)             CV                S
                      KCal/Mol        Cal/Mol-Kelvin    Cal/Mol-Kelvin
 Total                    8.381             12.783             70.599
 Electronic               0.000              0.000              0.000
 Translational            0.889              2.981             39.532
 Rotational               0.889              2.981             24.453
 Vibrational              6.604              6.821              6.615
 Vibration     1          0.605              1.947              3.399
 Vibration     2          0.670              1.740              1.638
 Vibration     3          0.776              1.444              0.919
 Vibration     4          0.941              1.066              0.478

 Optimization completed.
    -- Stationary point found.
 Normal termination of Gaussian 16 at Fri Sep 29 01:01:39 2023.
 Gaussian 16:  ES64L-G16RevB.01 20-Dec-2017

 ---------------------------------
 # rohf/gen geom=check guess=check
 ---------------------------------

 ------------------------------------
 dichlorovinylidene, ROHF/cc-pVTZ-F12
 ------------------------------------
 Structure from the checkpoint file:  "cccl2.chk"
 Charge =  0 Multiplicity = 1

                         Standard orientation:
 ---------------------------------------------------------------------
 Center     Atomic      Atomic             Coordinates (Angstroms)
 Number     Number       Type             X           Y           Z
 ---------------------------------------------------------------------
      1          6           0        0.000000    0.000000    0.445316
      2          6           0        0.000000    0.000000    1.762732
      3         17           0        0.000000    1.505464   -0.389656
      4         17           0       -0.000000   -1.505464   -0.389656
 ---------------------------------------------------------------------

 SCF Done:  E(ROHF) =  -994.653409050     A.U. after   12 cycles

 The electronic state is 1-A1.
 Alpha  occ. eigenvalues -- -104.89246-104.89246 -11.37009 -11.33646 -10.61657
 Alpha  occ. eigenvalues --  -10.61656  -8.08363  -8.08362  -8.08174  -8.08174
 Alpha  occ. eigenvalues --   -8.08157  -8.08157  -1.24209  -1.14260  -1.01531
 Alpha  occ. eigenvalues --   -0.72634  -0.64112  -0.59235  -0.53160  -0.50674
 Alpha  occ. eigenvalues --   -0.49236  -0.47908  -0.39645
 Alpha virt. eigenvalues --    0.01382   0.04808   0.06599   0.07024   0.07324
 Alpha virt. eigenvalues --    0.09770   0.10033   0.10510   0.11433   0.11579
 Alpha virt. eigenvalues --    0.13158   0.14265   0.14674   0.14950   0.15691

 Mulliken charges and spin densities:
               1          2
     1  C   -0.186087   0.000000
     2  C    0.029631   0.000000
     3  Cl   0.078228   0.000000
     4  Cl   0.078228   0.000000
 Sum of Mulliken charges =  -0.00000   0.00000

 Dipole moment (field-independent basis, Debye):
    X=             -0.0000    Y=              0.0000    Z=             -1.2767  Tot=              1.2767
 Quadrupole moment (field-independent basis, Debye-Ang):
   XX=            -37.4335   YY=            -33.9883   ZZ=            -40.7366
   XY=             -0.0000   XZ=             -0.0000   YZ=              0.0000

 Normal termination of Gaussian 16 at Fri Sep 29 01:01:53 2023.
