 Gaussian 16, Revision B.01,
 Gaussian 16:  ES64L-G16RevB.01 20-Dec-2017

 ---------------------------------------
 # b3lyp/gen opt freq CPHF(Grid=OneStep)
 ---------------------------------------

 ---------------------------------
 dichlorovinylidene, B3LYP/pcseg-2
 ---------------------------------
 Symbolic Z-matrix:
 Charge =  0 Multiplicity = 1

 SCF Done:  E(RB3LYP) =  -996.541816436     A.U. after   13 cycles
 SCF Done:  E(RB3LYP) =  -996.541901211     A.U. after    9 cycles
 SCF Done:  E(RB3LYP) =  -996.541902137     A.U. after    7 cycles
 Optimization completed.
    -- Stationary point found.
 Normal termination of Gaussian 16 at Fri Sep 15 22:51:29 2023.

 ------------------------------------------------------------------
 #N Geom=AllCheck Guess=TCheck SCRF=Check GenChk RB3LYP/ChkBas Freq
 ------------------------------------------------------------------

 Structure from the checkpoint file:  "/wrk/irikura/Gau-64597.chk"
 ---------------------------------
 dichlorovinylidene, B3LYP/pcseg-2
 ---------------------------------
 Charge =  0 Multiplicity = 1

                         Standard orientation:
 ---------------------------------------------------------------------
 Center     Atomic      Atomic             Coordinates (Angstroms)
 Number     Number       Type             X           Y           Z
 ---------------------------------------------------------------------
      1          6           0       -0.000000    0.000000    0.445316
      2          6           0       -0.000000    0.000000    1.762732
      3         17           0        0.000000    1.505464   -0.389656
      4         17           0       -0.000000   -1.505464   -0.389656
 ---------------------------------------------------------------------

 SCF Done:  E(RB3LYP) =  -996.541902137     A.U. after    1 cycles

 The electronic state is 1-A1.
 Alpha  occ. eigenvalues -- -101.57031-101.57031 -10.30141 -10.27101  -9.51427
 Alpha  occ. eigenvalues --   -9.51427  -7.27655  -7.27655  -7.26712  -7.26712
 Alpha  occ. eigenvalues --   -7.26634  -7.26634  -0.95693  -0.88168  -0.76579
 Alpha  occ. eigenvalues --   -0.56160  -0.50795  -0.44342  -0.38588  -0.36959
 Alpha  occ. eigenvalues --   -0.36244  -0.32920  -0.28822
 Alpha virt. eigenvalues --   -0.15577  -0.03211  -0.03044   0.06387   0.08636
 Alpha virt. eigenvalues --    0.13821   0.15705   0.16839   0.20989   0.22048
 Alpha virt. eigenvalues --    0.23865   0.25493   0.28500   0.30894   0.31000

 Mulliken charges:
               1
     1  C    0.133143
     2  C   -0.084346
     3  Cl  -0.024399
     4  Cl  -0.024399
 Sum of Mulliken charges =  -0.00000

 Dipole moment (field-independent basis, Debye):
    X=              0.0000    Y=              0.0000    Z=             -1.6818  Tot=              1.6818
 Quadrupole moment (field-independent basis, Debye-Ang):
   XX=            -37.1736   YY=            -33.6146   ZZ=            -40.9895
   XY=             -0.0000   XZ=              0.0000   YZ=              0.0000

  Exact polarizability:  27.804   0.000  55.008   0.000   0.000  50.902
 Approx polarizability:  41.984   0.000  88.383   0.000   0.000  88.408

                      1                      2                      3
                     B2                     A1                     B1
 Frequencies --    102.8978               263.5392               412.1517
 Red. masses --     14.1122                23.4614                12.4321
 Frc consts  --      0.0880                 0.9601                 1.2443
 IR Inten    --     15.7701                 0.0344                 0.0195

                      4                      5                      6
                     A1                     B2                     A1
 Frequencies --    584.0248               843.6760              1652.4631
 Red. masses --     18.0217                14.0232                12.0240
 Frc consts  --      3.6217                 5.8810                19.3447
 IR Inten    --      7.9176               134.6625                14.1902

 - Thermochemistry -
 -------------------
 Temperature   298.150 Kelvin.  Pressure   1.00000 Atm.
 Atom     1 has atomic number  6 and mass  12.00000

 Molecular mass:    93.93771 amu.
 Principal axes and moments of inertia in atomic units:
                           1         2         3
     Eigenvalues --   179.54977 566.04352 745.59330
           X            0.00000   0.00000   1.00000
           Y            1.00000   0.00000   0.00000
           Z            0.00000   1.00000   0.00000
 This molecule is an asymmetric top.
 Rotational symmetry number  2.
 Rotational temperatures (Kelvin)      0.48240     0.15302     0.11617
 Rotational constants (GHZ):          10.05148     3.18834     2.42054
 Zero-point vibrational energy      23080.5 (Joules/Mol)
                                    5.51636 (Kcal/Mol)
 Warning -- explicit consideration of   4 degrees of freedom as
           vibrations may cause significant error
 Vibrational temperatures:    148.05   379.17   592.99   840.28  1213.86
          (Kelvin)           2377.53

 Zero-point correction=                           0.008791 (Hartree/Particle)
 Thermal correction to Energy=                    0.013356
 Thermal correction to Enthalpy=                  0.014300
 Thermal correction to Gibbs Free Energy=        -0.019243
 Sum of electronic and zero-point Energies=           -996.533111
 Sum of electronic and thermal Energies=              -996.528546
 Sum of electronic and thermal Enthalpies=            -996.527602
 Sum of electronic and thermal Free Energies=         -996.561145

                     E (Thermal)             CV                S
                      KCal/Mol        Cal/Mol-Kelvin    Cal/Mol-Kelvin
 Total                    8.381             12.783             70.599
 Electronic               0.000              0.000              0.000
 Translational            0.889              2.981             39.532
 Rotational               0.889              2.981             24.453
 Vibrational              6.604              6.821              6.615
 Vibration     1          0.605              1.947              3.399
 Vibration     2          0.670              1.740              1.638
 Vibration     3          0.776              1.444              0.919
 Vibration     4          0.941              1.066              0.478

 Optimization completed.
    -- Stationary point found.
 Normal termination of Gaussian 16 at Fri Sep 15 22:51:47 2023.
