 Gaussian 16, Revision B.01,
 Gaussian 16:  ES64L-G16RevB.01 20-Dec-2017

 ---------------------------------------
 # b3lyp/gen opt freq CPHF(Grid=OneStep)
 ---------------------------------------

 ----------------------------
 fluoroethynyl, B3LYP/pcseg-2
 ----------------------------
 Symbolic Z-matrix:
 Charge =  0 Multiplicity = 2

 SCF Done:  E(UB3LYP) =  -175.862130370     A.U. after   21 cycles
 SCF Done:  E(UB3LYP) =  -175.887495748     A.U. after   20 cycles
 SCF Done:  E(UB3LYP) =  -175.894687257     A.U. after   20 cycles
 SCF Done:  E(UB3LYP) =  -175.897682590     A.U. after   18 cycles
 SCF Done:  E(UB3LYP) =  -175.898356158     A.U. after   20 cycles
 SCF Done:  E(UB3LYP) =  -175.898440374     A.U. after   19 cycles
 SCF Done:  E(UB3LYP) =  -175.898441798     A.U. after   12 cycles
 Optimization completed.
    -- Stationary point found.
 Normal termination of Gaussian 16 at Fri Sep 15 22:52:12 2023.

 ------------------------------------------------------------------
 #N Geom=AllCheck Guess=TCheck SCRF=Check GenChk UB3LYP/ChkBas Freq
 ------------------------------------------------------------------

 Structure from the checkpoint file:  "/wrk/irikura/Gau-65283.chk"
 ----------------------------
 fluoroethynyl, B3LYP/pcseg-2
 ----------------------------
 Charge =  0 Multiplicity = 2

                         Standard orientation:
 ---------------------------------------------------------------------
 Center     Atomic      Atomic             Coordinates (Angstroms)
 Number     Number       Type             X           Y           Z
 ---------------------------------------------------------------------
      1          6           0        0.000000    0.232876    0.000000
      2          6           0        0.960185    1.061372   -0.000000
      3          9           0       -0.640123   -0.862832    0.000000
 ---------------------------------------------------------------------

 SCF Done:  E(UB3LYP) =  -175.898441798     A.U. after    1 cycles

 The electronic state is 2-A'.
 Alpha  occ. eigenvalues --  -24.80746 -10.32368 -10.24787  -1.35362  -0.81667
 Alpha  occ. eigenvalues --   -0.68140  -0.58052  -0.57017  -0.35806  -0.33524
 Alpha  occ. eigenvalues --   -0.31574
 Alpha virt. eigenvalues --   -0.05237   0.01491   0.04895   0.12388   0.14511
 Alpha virt. eigenvalues --    0.15192   0.19235   0.20345   0.24389   0.24535
 Alpha virt. eigenvalues --    0.36104   0.47181   0.51257   0.56075   0.66432

  Beta  occ. eigenvalues --  -24.80434 -10.31668 -10.23872  -1.34734  -0.78390
  Beta  occ. eigenvalues --   -0.67349  -0.56759  -0.55817  -0.32121  -0.30552
  Beta virt. eigenvalues --   -0.20945  -0.02659   0.02491   0.07194   0.12718
  Beta virt. eigenvalues --    0.15326   0.15897   0.19633   0.21218   0.24716
  Beta virt. eigenvalues --    0.26989   0.36376   0.47625   0.51329   0.56703

 Mulliken charges and spin densities:
               1          2
     1  C    0.275701   0.411296
     2  C   -0.135104   0.529501
     3  F   -0.140597   0.059203
 Sum of Mulliken charges =  -0.00000   1.00000

 Dipole moment (field-independent basis, Debye):
    X=             -1.5954    Y=             -1.0407    Z=             -0.0000  Tot=              1.9048
 Quadrupole moment (field-independent basis, Debye-Ang):
   XX=            -18.1816   YY=            -16.9766   ZZ=            -16.7609
   XY=             -2.2114   XZ=              0.0000   YZ=              0.0000

  Exact polarizability:  28.142  13.381  30.036  -0.000  -0.000  25.468
 Approx polarizability:  50.609  24.776  41.172  -0.000  -0.000  21.269

                      1                      2                      3
                     A'                     A'                     A'
 Frequencies --    381.3639              1015.4322              1805.9689
 Red. masses --     12.6429                14.3012                12.4474
 Frc consts  --      1.0834                 8.6881                23.9194
 IR Inten    --     49.7473                15.5498               754.9394

 - Thermochemistry -
 -------------------
 Temperature   298.150 Kelvin.  Pressure   1.00000 Atm.
 Atom     1 has atomic number  6 and mass  12.00000

 Molecular mass:    42.99840 amu.
 Principal axes and moments of inertia in atomic units:
                           1         2         3
     Eigenvalues --     1.32259 166.99675 168.31935
           X            0.63094   0.77583   0.00000
           Y            0.77583  -0.63094   0.00000
           Z            0.00000   0.00000   1.00000
 This molecule is an asymmetric top.
 Rotational symmetry number  1.
 Rotational temperatures (Kelvin)     65.48795     0.51866     0.51458
 Rotational constants (GHZ):        1364.54740    10.80704    10.72213
 Zero-point vibrational energy      19156.8 (Joules/Mol)
                                    4.57858 (Kcal/Mol)
 Warning -- explicit consideration of   1 degrees of freedom as
           vibrations may cause significant error
 Vibrational temperatures:    548.70  1460.98  2598.39
          (Kelvin)

 Zero-point correction=                           0.007296 (Hartree/Particle)
 Thermal correction to Energy=                    0.010493
 Thermal correction to Enthalpy=                  0.011437
 Thermal correction to Gibbs Free Energy=        -0.016103
 Sum of electronic and zero-point Energies=           -175.891145
 Sum of electronic and thermal Energies=              -175.887949
 Sum of electronic and thermal Enthalpies=            -175.887005
 Sum of electronic and thermal Free Energies=         -175.914545

                     E (Thermal)             CV                S
                      KCal/Mol        Cal/Mol-Kelvin    Cal/Mol-Kelvin
 Total                    6.584              7.857             57.963
 Electronic               0.000              0.000              1.377
 Translational            0.889              2.981             37.202
 Rotational               0.889              2.981             18.259
 Vibrational              4.807              1.895              1.125
 Vibration     1          0.751              1.510              1.034

 Optimization completed.
    -- Stationary point found.
 Normal termination of Gaussian 16 at Fri Sep 15 22:52:26 2023.
