 Gaussian 16, Revision B.01,
 Gaussian 16:  ES64L-G16RevB.01 20-Dec-2017

 --------------------
 # b3lyp/gen opt freq
 --------------------

 ---------------------------------
 difluorovinylidene, B3LYP/pcseg-2
 ---------------------------------
 Symbolic Z-matrix:
 Charge =  0 Multiplicity = 1

 SCF Done:  E(RB3LYP) =  -275.815059518     A.U. after   12 cycles
 SCF Done:  E(RB3LYP) =  -275.815139525     A.U. after    8 cycles
 SCF Done:  E(RB3LYP) =  -275.815143792     A.U. after    7 cycles
 Optimization completed.
    -- Stationary point found.
 Normal termination of Gaussian 16 at Fri Jun 17 20:09:25 2022.

 ------------------------------------------------------------------
 #N Geom=AllCheck Guess=TCheck SCRF=Check GenChk RB3LYP/ChkBas Freq
 ------------------------------------------------------------------

 Structure from the checkpoint file:  "/wrk/irikura/Gau-18942.chk"
 ---------------------------------
 difluorovinylidene, B3LYP/pcseg-2
 ---------------------------------
 Charge =  0 Multiplicity = 1

                         Standard orientation:
 ---------------------------------------------------------------------
 Center     Atomic      Atomic             Coordinates (Angstroms)
 Number     Number       Type             X           Y           Z
 ---------------------------------------------------------------------
      1          6           0        0.000000   -0.000000    0.164358
      2          6           0        0.000000   -0.000000    1.504106
      3          9           0       -0.000000    1.101771   -0.556155
      4          9           0       -0.000000   -1.101771   -0.556155
 ---------------------------------------------------------------------

 SCF Done:  E(RB3LYP) =  -275.815143792     A.U. after    1 cycles

 The electronic state is 1-A1.
 Alpha  occ. eigenvalues --  -24.76598 -24.76598 -10.37485 -10.28063  -1.33686
 Alpha  occ. eigenvalues --   -1.28227  -0.81607  -0.67270  -0.62789  -0.57157
 Alpha  occ. eigenvalues --   -0.51233  -0.49876  -0.48456  -0.34195  -0.30278
 Alpha virt. eigenvalues --   -0.17475  -0.01034   0.04237   0.12526   0.14711
 Alpha virt. eigenvalues --    0.15212   0.16796   0.19072   0.19721   0.22687
 Alpha virt. eigenvalues --    0.31832   0.35651   0.39657   0.42325   0.43959

 Mulliken charges:
               1
     1  C    0.517655
     2  C   -0.087211
     3  F   -0.215222
     4  F   -0.215222
 Sum of Mulliken charges =  -0.00000

 Dipole moment (field-independent basis, Debye):
    X=              0.0000    Y=              0.0000    Z=             -1.1288  Tot=              1.1288
 Quadrupole moment (field-independent basis, Debye-Ang):
   XX=            -21.3983   YY=            -20.8866   ZZ=            -25.7379
   XY=             -0.0000   XZ=             -0.0000   YZ=              0.0000

  Exact polarizability:  17.414   0.000  22.373   0.000   0.000  31.406
 Approx polarizability:  23.079   0.000  33.630   0.000   0.000  48.501

                      1                      2                      3
                     B2                     A1                     B1
 Frequencies --    318.2861               506.2668               574.5505
 Red. masses --     13.9886                16.5308                12.4892
 Frc consts  --      0.8350                 2.4963                 2.4291
 IR Inten    --     34.6051                 4.1999                 4.0871

                      4                      5                      6
                     A1                     B2                     A1
 Frequencies --    935.7508              1256.8185              1708.5945
 Red. masses --     15.3938                13.6700                12.2004
 Frc consts  --      7.9417                12.7223                20.9846
 IR Inten    --     71.3912               294.5187                67.8493

 - Thermochemistry -
 -------------------
 Temperature   298.150 Kelvin.  Pressure   1.00000 Atm.
 Atom     1 has atomic number  6 and mass  12.00000

 Molecular mass:    61.99681 amu.
 Principal axes and moments of inertia in atomic units:
                           1         2         3
     Eigenvalues --   140.00370 164.71274 304.71645
           X            0.00000   0.00000   1.00000
           Y            1.00000   0.00000   0.00000
           Z            0.00000   1.00000   0.00000
 This molecule is an asymmetric top.
 Rotational symmetry number  2.
 Rotational temperatures (Kelvin)      0.61865     0.52585     0.28424
 Rotational constants (GHZ):          12.89067    10.95690     5.92269
 Zero-point vibrational energy      31702.6 (Joules/Mol)
                                    7.57711 (Kcal/Mol)
 Warning -- explicit consideration of   3 degrees of freedom as
           vibrations may cause significant error
 Vibrational temperatures:    457.94   728.40   826.65  1346.34  1808.28
          (Kelvin)           2458.29

 Zero-point correction=                           0.012075 (Hartree/Particle)
 Thermal correction to Energy=                    0.015762
 Thermal correction to Enthalpy=                  0.016706
 Thermal correction to Gibbs Free Energy=        -0.013227
 Sum of electronic and zero-point Energies=           -275.803069
 Sum of electronic and thermal Energies=              -275.799382
 Sum of electronic and thermal Enthalpies=            -275.798438
 Sum of electronic and thermal Free Energies=         -275.828370

                     E (Thermal)             CV                S
                      KCal/Mol        Cal/Mol-Kelvin    Cal/Mol-Kelvin
 Total                    9.891             10.582             62.998
 Electronic               0.000              0.000              0.000
 Translational            0.889              2.981             38.293
 Rotational               0.889              2.981             22.090
 Vibrational              8.113              4.620              2.616
 Vibration     1          0.705              1.639              1.319
 Vibration     2          0.861              1.236              0.643
 Vibration     3          0.931              1.086              0.496

 Optimization completed.
    -- Stationary point found.
 Normal termination of Gaussian 16 at Fri Jun 17 20:09:36 2022.
