 Gaussian 16, Revision B.01,
 Gaussian 16:  ES64L-G16RevB.01 20-Dec-2017

 ---------------------------------------
 # b3lyp/gen opt freq CPHF(Grid=OneStep)
 ---------------------------------------

 ----------------------
 ethynyl, B3LYP/pcseg-2
 ----------------------
 Symbolic Z-matrix:
 Charge =  0 Multiplicity = 2

 SCF Done:  E(UB3LYP) =  -76.6399143760     A.U. after   12 cycles
 SCF Done:  E(UB3LYP) =  -76.6399524089     A.U. after    9 cycles
 Optimization completed.
    -- Stationary point found.
 Normal termination of Gaussian 16 at Fri Sep 15 22:52:58 2023.

 ------------------------------------------------------------------
 #N Geom=AllCheck Guess=TCheck SCRF=Check GenChk UB3LYP/ChkBas Freq
 ------------------------------------------------------------------

 Structure from the checkpoint file:  "/wrk/irikura/Gau-67141.chk"
 ----------------------
 ethynyl, B3LYP/pcseg-2
 ----------------------
 Charge =  0 Multiplicity = 2

                         Standard orientation:
 ---------------------------------------------------------------------
 Center     Atomic      Atomic             Coordinates (Angstroms)
 Number     Number       Type             X           Y           Z
 ---------------------------------------------------------------------
      1          6           0        0.000000    0.000000   -0.471660
      2          6           0        0.000000    0.000000    0.727512
      3          1           0        0.000000    0.000000   -1.535111
 ---------------------------------------------------------------------

 SCF Done:  E(UB3LYP) =  -76.6399524089     A.U. after    1 cycles

 The electronic state is 2-SG.
 Alpha  occ. eigenvalues --  -10.24314 -10.19951  -0.78085  -0.56136  -0.40789
 Alpha  occ. eigenvalues --   -0.32205  -0.32205
 Alpha virt. eigenvalues --    0.00678   0.00678   0.03639   0.09494   0.15173
 Alpha virt. eigenvalues --    0.16446   0.16446   0.26333   0.26333   0.29345
 Alpha virt. eigenvalues --    0.32068   0.48979   0.68526   0.76222   0.76222

  Beta  occ. eigenvalues --  -10.22108 -10.19909  -0.76090  -0.55181  -0.30843
  Beta  occ. eigenvalues --   -0.30843
  Beta virt. eigenvalues --   -0.19961   0.02736   0.02736   0.03779   0.10928
  Beta virt. eigenvalues --    0.15911   0.16601   0.16601   0.27252   0.27252
  Beta virt. eigenvalues --    0.31209   0.32151   0.50902   0.71556   0.77486

 Mulliken charges and spin densities:
               1          2
     1  C   -0.129520  -0.157365
     2  C    0.031726   1.133087
     3  H    0.097794   0.024278
 Sum of Mulliken charges =  -0.00000   1.00000

 Dipole moment (field-independent basis, Debye):
    X=              0.0000    Y=              0.0000    Z=             -0.7720  Tot=              0.7720
 Quadrupole moment (field-independent basis, Debye-Ang):
   XX=            -12.9074   YY=            -12.9074   ZZ=             -8.3426
   XY=              0.0000   XZ=              0.0000   YZ=              0.0000

  Exact polarizability:  19.598   0.000  19.598   0.000   0.000  27.046
 Approx polarizability:  17.359  -0.000  17.359  -0.000  -0.000  50.126

                      1                      2                      3
                     PI                     PI                     SG
 Frequencies --    351.5340               351.5340              2095.1431
 Red. masses --      1.3348                 1.3348                 5.6693
 Frc consts  --      0.0972                 0.0972                14.6626
 IR Inten    --      3.1564                 3.1564                 4.6990

                      4
                     SG
 Frequencies --   3453.0318
 Red. masses --      1.1593
 Frc consts  --      8.1445
 IR Inten    --     56.8126

 - Thermochemistry -
 -------------------
 Temperature   298.150 Kelvin.  Pressure   1.00000 Atm.
 Atom     1 has atomic number  6 and mass  12.00000

 Molecular mass:    25.00783 amu.
 Principal axes and moments of inertia in atomic units:
                           1         2         3
     Eigenvalues --     0.00000  40.36401  40.36401
           X            0.00000  -0.00000   1.00000
           Y            0.00000   1.00000   0.00000
           Z            1.00000   0.00000   0.00000
 This molecule is a prolate symmetric top.
 Rotational symmetry number  1.
 Rotational temperature (Kelvin)      2.14582
 Rotational constant (GHZ):          44.711638
 Zero-point vibrational energy      37390.7 (Joules/Mol)
                                    8.93660 (Kcal/Mol)
 Warning -- explicit consideration of   2 degrees of freedom as
           vibrations may cause significant error
 Vibrational temperatures:    505.78   505.78  3014.44  4968.14
          (Kelvin)

 Zero-point correction=                           0.014241 (Hartree/Particle)
 Thermal correction to Energy=                    0.017321
 Thermal correction to Enthalpy=                  0.018266
 Thermal correction to Gibbs Free Energy=        -0.006002
 Sum of electronic and zero-point Energies=            -76.625711
 Sum of electronic and thermal Energies=               -76.622631
 Sum of electronic and thermal Enthalpies=             -76.621687
 Sum of electronic and thermal Free Energies=          -76.645955

                     E (Thermal)             CV                S
                      KCal/Mol        Cal/Mol-Kelvin    Cal/Mol-Kelvin
 Total                   10.869              8.121             51.076
 Electronic               0.000              0.000              1.377
 Translational            0.889              2.981             35.587
 Rotational               0.592              1.987             11.792
 Vibrational              9.388              3.153              2.320
 Vibration     1          0.728              1.572              1.159
 Vibration     2          0.728              1.572              1.159

 Optimization completed.
    -- Stationary point found.
 Normal termination of Gaussian 16 at Fri Sep 15 22:53:08 2023.
