 Gaussian 16, Revision B.01,
 Gaussian 16:  ES64L-G16RevB.01 20-Dec-2017

 --------------------
 # b3lyp/gen opt freq
 --------------------

 -------------------------
 vinylidene, B3LYP/pcseg-2
 -------------------------
 Symbolic Z-matrix:
 Charge =  0 Multiplicity = 1

 SCF Done:  E(RB3LYP) =  -77.2963696114     A.U. after   11 cycles
 SCF Done:  E(RB3LYP) =  -77.2964837152     A.U. after    7 cycles
 SCF Done:  E(RB3LYP) =  -77.2964852688     A.U. after    6 cycles
 Optimization completed.
    -- Stationary point found.
 Normal termination of Gaussian 16 at Wed Jun 15 16:46:54 2022.

 ------------------------------------------------------------------
 #N Geom=AllCheck Guess=TCheck SCRF=Check GenChk RB3LYP/ChkBas Freq
 ------------------------------------------------------------------

 Structure from the checkpoint file:  "/wrk/irikura/Gau-31969.chk"
 -------------------------
 vinylidene, B3LYP/pcseg-2
 -------------------------
 Charge =  0 Multiplicity = 1

                         Standard orientation:
 ---------------------------------------------------------------------
 Center     Atomic      Atomic             Coordinates (Angstroms)
 Number     Number       Type             X           Y           Z
 ---------------------------------------------------------------------
      1          6           0        0.000000   -0.000000   -0.474074
      2          6           0       -0.000000    0.000000    0.816151
      3          1           0        0.000000    0.935630   -1.026230
      4          1           0       -0.000000   -0.935630   -1.026230
 ---------------------------------------------------------------------

 SCF Done:  E(RB3LYP) =  -77.2964852688     A.U. after    1 cycles

 The electronic state is 1-A1.
 Alpha  occ. eigenvalues --  -10.24103 -10.18556  -0.79467  -0.55071  -0.48039
 Alpha  occ. eigenvalues --   -0.30963  -0.30594
 Alpha virt. eigenvalues --   -0.11090  -0.00385   0.02183   0.05906   0.10494
 Alpha virt. eigenvalues --    0.16279   0.17409   0.21793   0.22018   0.25930
 Alpha virt. eigenvalues --    0.30629   0.32061   0.35086   0.38140   0.52153

 Mulliken charges:
               1
     1  C   -0.118608
     2  C   -0.075644
     3  H    0.097126
     4  H    0.097126
 Sum of Mulliken charges =  -0.00000

 Dipole moment (field-independent basis, Debye):
    X=             -0.0000    Y=             -0.0000    Z=             -2.5079  Tot=              2.5079
 Quadrupole moment (field-independent basis, Debye-Ang):
   XX=            -14.4381   YY=            -10.5378   ZZ=            -14.5051
   XY=              0.0000   XZ=              0.0000   YZ=              0.0000

  Exact polarizability:  17.048  -0.000  19.770   0.000   0.000  30.286
 Approx polarizability:  22.206   0.000  28.202  -0.000  -0.000  47.591

                      1                      2                      3
                     B2                     B1                     A1
 Frequencies --    348.2108               762.5557              1217.8440
 Red. masses --      1.3394                 1.3419                 1.0966
 Frc consts  --      0.0957                 0.4598                 0.9583
 IR Inten    --      6.7636                87.4040                25.7121

                      4                      5                      6
                     A1                     A1                     B2
 Frequencies --   1714.1204              3119.7821              3195.5183
 Red. masses --      6.7721                 1.0663                 1.1096
 Frc consts  --     11.7235                 6.1147                 6.6760
 IR Inten    --     90.0461                47.7345                20.5504

 - Thermochemistry -
 -------------------
 Temperature   298.150 Kelvin.  Pressure   1.00000 Atm.
 Atom     1 has atomic number  6 and mass  12.00000

 Molecular mass:    26.01565 amu.
 Principal axes and moments of inertia in atomic units:
                           1         2         3
     Eigenvalues --     6.30117  45.18668  51.48785
           X            0.00000   0.00000   1.00000
           Y            0.00000   1.00000   0.00000
           Z            1.00000   0.00000   0.00000
 This molecule is an asymmetric top.
 Rotational symmetry number  2.
 Rotational temperatures (Kelvin)     13.74569     1.91680     1.68222
 Rotational constants (GHZ):         286.41364    39.93967    35.05179
 Zero-point vibrational energy      61954.8 (Joules/Mol)
                                   14.80755 (Kcal/Mol)
 Warning -- explicit consideration of   1 degrees of freedom as
           vibrations may cause significant error
 Vibrational temperatures:    501.00  1097.15  1752.21  2466.24  4488.67
          (Kelvin)           4597.64

 Zero-point correction=                           0.023597 (Hartree/Particle)
 Thermal correction to Energy=                    0.026901
 Thermal correction to Enthalpy=                  0.027845
 Thermal correction to Gibbs Free Energy=         0.002606
 Sum of electronic and zero-point Energies=            -77.272888
 Sum of electronic and thermal Energies=               -77.269585
 Sum of electronic and thermal Enthalpies=             -77.268640
 Sum of electronic and thermal Free Energies=          -77.293879

                     E (Thermal)             CV                S
                      KCal/Mol        Cal/Mol-Kelvin    Cal/Mol-Kelvin
 Total                   16.880              8.483             53.119
 Electronic               0.000              0.000              0.000
 Translational            0.889              2.981             35.704
 Rotational               0.889              2.981             15.957
 Vibrational             15.103              2.522              1.457
 Vibration     1          0.726              1.579              1.174

 Optimization completed.
    -- Stationary point found.
 Normal termination of Gaussian 16 at Wed Jun 15 16:47:01 2022.
