 Gaussian 16, Revision B.01,
 Gaussian 16:  ES64L-G16RevB.01 20-Dec-2017

 --------------------
 # b3lyp/gen opt freq
 --------------------

 -----------------------
 phosgene, B3LYP/pcseg-2
 -----------------------
 Symbolic Z-matrix:
 Charge =  0 Multiplicity = 1

 SCF Done:  E(RB3LYP) =  -1033.84859482     A.U. after   13 cycles
 SCF Done:  E(RB3LYP) =  -1033.84861865     A.U. after    8 cycles
 Optimization completed.
    -- Stationary point found.
 Normal termination of Gaussian 16 at Wed Jun 15 15:31:56 2022.

 ------------------------------------------------------------------
 #N Geom=AllCheck Guess=TCheck SCRF=Check GenChk RB3LYP/ChkBas Freq
 ------------------------------------------------------------------

 Structure from the checkpoint file:  "/wrk/irikura/Gau-12077.chk"
 -----------------------
 phosgene, B3LYP/pcseg-2
 -----------------------
 Charge =  0 Multiplicity = 1

                         Standard orientation:
 ---------------------------------------------------------------------
 Center     Atomic      Atomic             Coordinates (Angstroms)
 Number     Number       Type             X           Y           Z
 ---------------------------------------------------------------------
      1          8           0       -0.000000    0.000000    1.674462
      2          6           0       -0.000000    0.000000    0.501776
      3         17           0        0.000000    1.457033   -0.482540
      4         17           0       -0.000000   -1.457033   -0.482540
 ---------------------------------------------------------------------

 SCF Done:  E(RB3LYP) =  -1033.84861865     A.U. after    1 cycles

 The electronic state is 1-A1.
 Alpha  occ. eigenvalues -- -101.55839-101.55839 -19.18963 -10.39037  -9.50358
 Alpha  occ. eigenvalues --   -9.50358  -7.26523  -7.26523  -7.25691  -7.25691
 Alpha  occ. eigenvalues --   -7.25552  -7.25552  -1.14098  -0.91772  -0.86948
 Alpha  occ. eigenvalues --   -0.60865  -0.53232  -0.51379  -0.49546  -0.38333
 Alpha  occ. eigenvalues --   -0.36724  -0.36306  -0.35744  -0.33281
 Alpha virt. eigenvalues --   -0.07309  -0.05391   0.05554   0.07929   0.13693
 Alpha virt. eigenvalues --    0.14057   0.15929   0.26782   0.29009   0.29943
 Alpha virt. eigenvalues --    0.31268   0.31478   0.31552   0.33549   0.41653

 Mulliken charges:
               1
     1  O   -0.251100
     2  C    0.338266
     3  Cl  -0.043583
     4  Cl  -0.043583
 Sum of Mulliken charges =  -0.00000

 Dipole moment (field-independent basis, Debye):
    X=              0.0000    Y=             -0.0000    Z=             -1.2408  Tot=              1.2408
 Quadrupole moment (field-independent basis, Debye-Ang):
   XX=            -34.9486   YY=            -34.6605   ZZ=            -38.8122
   XY=             -0.0000   XZ=             -0.0000   YZ=             -0.0000

  Exact polarizability:  23.225  -0.000  50.354  -0.000   0.000  39.383
 Approx polarizability:  35.237   0.000  77.144   0.000  -0.000  69.246

                      1                      2                      3
                     A1                     B2                     A1
 Frequencies --    297.5973               436.8219               556.8124
 Red. masses --     27.7681                20.9815                19.3686
 Frc consts  --      1.4490                 2.3588                 3.5381
 IR Inten    --      0.1727                 2.5995                20.2408

                      4                      5                      6
                     B1                     B2                     A1
 Frequencies --    588.2543               816.6831              1868.4158
 Red. masses --     12.7650                12.8372                13.4120
 Frc consts  --      2.6026                 5.0446                27.5861
 IR Inten    --      5.9653               511.9756               398.0850

 - Thermochemistry -
 -------------------
 Temperature   298.150 Kelvin.  Pressure   1.00000 Atm.
 Atom     1 has atomic number  8 and mass  15.99491

 Molecular mass:    97.93262 amu.
 Principal axes and moments of inertia in atomic units:
                           1         2         3
     Eigenvalues --   229.06150 530.21011 759.27161
           X            0.00000   0.00000   1.00000
           Y            1.00000   0.00000  -0.00000
           Z            0.00000   1.00000   0.00000
 This molecule is an asymmetric top.
 Rotational symmetry number  2.
 Rotational temperatures (Kelvin)      0.37813     0.16336     0.11408
 Rotational constants (GHZ):           7.87885     3.40382     2.37694
 Zero-point vibrational energy      27302.3 (Joules/Mol)
                                    6.52540 (Kcal/Mol)
 Warning -- explicit consideration of   4 degrees of freedom as
           vibrations may cause significant error
 Vibrational temperatures:    428.18   628.49   801.13   846.37  1175.02
          (Kelvin)           2688.23

 Zero-point correction=                           0.010399 (Hartree/Particle)
 Thermal correction to Energy=                    0.014356
 Thermal correction to Enthalpy=                  0.015301
 Thermal correction to Gibbs Free Energy=        -0.016898
 Sum of electronic and zero-point Energies=          -1033.838220
 Sum of electronic and thermal Energies=             -1033.834262
 Sum of electronic and thermal Enthalpies=           -1033.833318
 Sum of electronic and thermal Free Energies=        -1033.865517

                     E (Thermal)             CV                S
                      KCal/Mol        Cal/Mol-Kelvin    Cal/Mol-Kelvin
 Total                    9.009             11.855             67.768
 Electronic               0.000              0.000              0.000
 Translational            0.889              2.981             39.656
 Rotational               0.889              2.981             24.648
 Vibrational              7.231              5.893              3.464
 Vibration     1          0.691              1.678              1.430
 Vibration     2          0.797              1.390              0.837
 Vibration     3          0.912              1.125              0.530
 Vibration     4          0.945              1.057              0.470

 Optimization completed.
    -- Stationary point found.
 Normal termination of Gaussian 16 at Wed Jun 15 15:32:08 2022.
