 Gaussian 16, Revision B.01,
 Gaussian 16:  ES64L-G16RevB.01 20-Dec-2017

 --------------------
 # b3lyp/gen opt freq
 --------------------

 --------------------------------
 dichloromethylene, B3LYP/pcseg-2
 --------------------------------
 Symbolic Z-matrix:
 Charge =  0 Multiplicity = 1

 SCF Done:  E(RB3LYP) =  -958.484353275     A.U. after   12 cycles
 SCF Done:  E(RB3LYP) =  -958.484378722     A.U. after    8 cycles
 SCF Done:  E(RB3LYP) =  -958.484383498     A.U. after    8 cycles
 Optimization completed.
    -- Stationary point found.
 Normal termination of Gaussian 16 at Sat Jun 18 12:22:13 2022.

 ------------------------------------------------------------------
 #N Geom=AllCheck Guess=TCheck SCRF=Check GenChk RB3LYP/ChkBas Freq
 ------------------------------------------------------------------

 Structure from the checkpoint file:  "/wrk/irikura/Gau-2861.chk"
 --------------------------------
 dichloromethylene, B3LYP/pcseg-2
 --------------------------------
 Charge =  0 Multiplicity = 1

                         Standard orientation:
 ---------------------------------------------------------------------
 Center     Atomic      Atomic             Coordinates (Angstroms)
 Number     Number       Type             X           Y           Z
 ---------------------------------------------------------------------
      1          6           0        0.000000    0.000000    0.846782
      2         17           0        0.000000    1.412327   -0.149432
      3         17           0       -0.000000   -1.412327   -0.149432
 ---------------------------------------------------------------------

 SCF Done:  E(RB3LYP) =  -958.484383498     A.U. after    1 cycles

 The electronic state is 1-A1.
 Alpha  occ. eigenvalues -- -101.56043-101.56043 -10.33282  -9.50564  -9.50564
 Alpha  occ. eigenvalues --   -7.26566  -7.26566  -7.26085  -7.26085  -7.25734
 Alpha  occ. eigenvalues --   -7.25734  -0.94113  -0.86491  -0.61532  -0.47723
 Alpha  occ. eigenvalues --   -0.42342  -0.42288  -0.36231  -0.33992  -0.27264
 Alpha virt. eigenvalues --   -0.13436  -0.01138   0.03657   0.11167   0.15213
 Alpha virt. eigenvalues --    0.17740   0.18236   0.26367   0.28469   0.31191
 Alpha virt. eigenvalues --    0.32164   0.32557   0.33856   0.45053   0.45278

 Mulliken charges:
               1
     1  C   -0.038485
     2  Cl   0.019242
     3  Cl   0.019242
 Sum of Mulliken charges =  -0.00000

 Dipole moment (field-independent basis, Debye):
    X=             -0.0000    Y=              0.0000    Z=             -1.1778  Tot=              1.1778
 Quadrupole moment (field-independent basis, Debye-Ang):
   XX=            -29.9024   YY=            -29.3883   ZZ=            -33.5055
   XY=             -0.0000   XZ=             -0.0000   YZ=              0.0000

  Exact polarizability:  22.071  -0.000  54.733  -0.000  -0.000  30.469
 Approx polarizability:  35.850   0.000  94.746   0.000   0.000  50.432

                      1                      2                      3
                     A1                     A1                     B2
 Frequencies --    330.7219               712.6645               732.9644
 Red. masses --     30.0537                14.1563                13.8612
 Frc consts  --      1.9368                 4.2361                 4.3875
 IR Inten    --      0.4235                37.5612               398.9674

 - Thermochemistry -
 -------------------
 Temperature   298.150 Kelvin.  Pressure   1.00000 Atm.
 Atom     1 has atomic number  6 and mass  12.00000

 Molecular mass:    81.93771 amu.
 Principal axes and moments of inertia in atomic units:
                           1         2         3
     Eigenvalues --    36.30044 498.17264 534.47308
           X            0.00000   0.00000   1.00000
           Y            1.00000   0.00000  -0.00000
           Z            0.00000   1.00000   0.00000
 This molecule is an asymmetric top.
 Rotational symmetry number  2.
 Rotational temperatures (Kelvin)      2.38603     0.17386     0.16205
 Rotational constants (GHZ):          49.71679     3.62272     3.37667
 Zero-point vibrational energy      10624.9 (Joules/Mol)
                                    2.53942 (Kcal/Mol)
 Warning -- explicit consideration of   1 degrees of freedom as
           vibrations may cause significant error
 Vibrational temperatures:    475.83  1025.37  1054.57
          (Kelvin)

 Zero-point correction=                           0.004047 (Hartree/Particle)
 Thermal correction to Energy=                    0.007470
 Thermal correction to Enthalpy=                  0.008414
 Thermal correction to Gibbs Free Energy=        -0.021684
 Sum of electronic and zero-point Energies=           -958.480337
 Sum of electronic and thermal Energies=              -958.476913
 Sum of electronic and thermal Enthalpies=            -958.475969
 Sum of electronic and thermal Free Energies=         -958.506068

                     E (Thermal)             CV                S
                      KCal/Mol        Cal/Mol-Kelvin    Cal/Mol-Kelvin
 Total                    4.688              9.148             63.348
 Electronic               0.000              0.000              0.000
 Translational            0.889              2.981             39.124
 Rotational               0.889              2.981             22.407
 Vibrational              2.910              3.187              1.817
 Vibration     1          0.713              1.614              1.257

 Optimization completed.
    -- Stationary point found.
 Normal termination of Gaussian 16 at Sat Jun 18 12:22:21 2022.
