 Gaussian 16, Revision B.01,

 ---------------------------------------
 # b3lyp/gen opt freq CPHF(Grid=OneStep)
 ---------------------------------------

 -----------------------
 phosgene, B3LYP/pcseg-2
 -----------------------
 Symbolic Z-matrix:
 Charge =  0 Multiplicity = 1

 SCF Done:  E(RB3LYP) =  -1033.84861865     A.U. after   13 cycles
 Optimization completed.
    -- Stationary point found.
 Normal termination of Gaussian 16 at Wed Sep 27 19:13:55 2023.

 ------------------------------------------------------------------
 #N Geom=AllCheck Guess=TCheck SCRF=Check GenChk RB3LYP/ChkBas Freq
 ------------------------------------------------------------------

 Structure from the checkpoint file:  "ccl2o.chk"
 -----------------------
 phosgene, B3LYP/pcseg-2
 -----------------------
 Charge =  0 Multiplicity = 1

 SCF Done:  E(RB3LYP) =  -1033.84861865     A.U. after    1 cycles

  Exact polarizability:  23.225   0.000  50.356   0.000  -0.000  39.382
 Approx polarizability:  35.237   0.000  77.144   0.000  -0.000  69.246

                      1                      2                      3
                     A1                     B2                     A1
 Frequencies --    297.6121               436.8214               556.8152
 Red. masses --     27.7684                20.9815                19.3685
 Frc consts  --      1.4491                 2.3588                 3.5381
 IR Inten    --      0.1729                 2.6001                20.2353

                      4                      5                      6
                     B1                     B2                     A1
 Frequencies --    588.2352               816.6786              1868.4104
 Red. masses --     12.7650                12.8372                13.4120
 Frc consts  --      2.6024                 5.0445                27.5859
 IR Inten    --      5.9662               512.0650               398.0262

 - Thermochemistry -
 -------------------
 Temperature   298.150 Kelvin.  Pressure   1.00000 Atm.
 Atom     1 has atomic number  8 and mass  15.99491

 Molecular mass:    97.93262 amu.
 Principal axes and moments of inertia in atomic units:
                           1         2         3
     Eigenvalues --   229.06168 530.20997 759.27165
           X            0.00000   0.00000   1.00000
           Y            1.00000   0.00000   0.00000
           Z            0.00000   1.00000   0.00000
 This molecule is an asymmetric top.
 Rotational symmetry number  2.
 Rotational temperatures (Kelvin)      0.37812     0.16336     0.11408
 Rotational constants (GHZ):           7.87884     3.40382     2.37694
 Zero-point vibrational energy      27302.2 (Joules/Mol)
                                    6.52538 (Kcal/Mol)
 Warning -- explicit consideration of   4 degrees of freedom as
           vibrations may cause significant error
 Vibrational temperatures:    428.20   628.49   801.13   846.34  1175.02
          (Kelvin)           2688.23

 Zero-point correction=                           0.010399 (Hartree/Particle)
 Thermal correction to Energy=                    0.014356
 Thermal correction to Enthalpy=                  0.015301
 Thermal correction to Gibbs Free Energy=        -0.016898
 Sum of electronic and zero-point Energies=          -1033.838220
 Sum of electronic and thermal Energies=             -1033.834262
 Sum of electronic and thermal Enthalpies=           -1033.833318
 Sum of electronic and thermal Free Energies=        -1033.865517

                     E (Thermal)             CV                S
                      KCal/Mol        Cal/Mol-Kelvin    Cal/Mol-Kelvin
 Total                    9.009             11.855             67.768
 Electronic               0.000              0.000              0.000
 Translational            0.889              2.981             39.656
 Rotational               0.889              2.981             24.648
 Vibrational              7.231              5.893              3.464
 Vibration     1          0.691              1.678              1.430
 Vibration     2          0.797              1.390              0.837
 Vibration     3          0.912              1.125              0.530
 Vibration     4          0.945              1.057              0.470

 Optimization completed.
    -- Stationary point found.
 Normal termination of Gaussian 16 at Wed Sep 27 19:14:29 2023.
 Gaussian 16:  ES64L-G16RevB.01 20-Dec-2017

 ---------------------------------
 # rohf/gen geom=check guess=check
 ---------------------------------

 --------------------------
 phosgene, ROHF/cc-pVTZ-F12
 --------------------------
 Structure from the checkpoint file:  "ccl2o.chk"
 Charge =  0 Multiplicity = 1

                         Standard orientation:
 ---------------------------------------------------------------------
 Center     Atomic      Atomic             Coordinates (Angstroms)
 Number     Number       Type             X           Y           Z
 ---------------------------------------------------------------------
      1          8           0        0.000000    0.000000    1.674462
      2          6           0        0.000000    0.000000    0.501776
      3         17           0       -0.000000    1.457033   -0.482540
      4         17           0       -0.000000   -1.457033   -0.482540
 ---------------------------------------------------------------------

 SCF Done:  E(ROHF) =  -1031.81802193     A.U. after   12 cycles

 The electronic state is 1-A1.
 Alpha  occ. eigenvalues -- -104.88786-104.88786 -20.62357 -11.47544 -10.61289
 Alpha  occ. eigenvalues --  -10.61287  -8.07972  -8.07972  -8.07796  -8.07796
 Alpha  occ. eigenvalues --   -8.07786  -8.07786  -1.48968  -1.19708  -1.13713
 Alpha  occ. eigenvalues --   -0.81215  -0.70824  -0.70225  -0.64920  -0.52965
 Alpha  occ. eigenvalues --   -0.50081  -0.49968  -0.49400  -0.47725
 Alpha virt. eigenvalues --    0.04543   0.06253   0.07388   0.07669   0.09063
 Alpha virt. eigenvalues --    0.09418   0.10098   0.11209   0.11434   0.11932
 Alpha virt. eigenvalues --    0.14021   0.14255   0.20813   0.21860   0.22333

 Mulliken charges and spin densities:
               1          2
     1  O   -0.408658   0.000000
     2  C    0.277582   0.000000
     3  Cl   0.065538   0.000000
     4  Cl   0.065538   0.000000
 Sum of Mulliken charges =  -0.00000   0.00000

 Dipole moment (field-independent basis, Debye):
    X=             -0.0000    Y=              0.0000    Z=             -1.4690  Tot=              1.4690
 Quadrupole moment (field-independent basis, Debye-Ang):
   XX=            -35.0577   YY=            -34.3535   ZZ=            -39.2520
   XY=             -0.0000   XZ=             -0.0000   YZ=              0.0000

 Normal termination of Gaussian 16 at Wed Sep 27 19:14:43 2023.
