 Gaussian 16, Revision B.01,

 ---------------------------------------
 # b3lyp/gen opt freq CPHF(Grid=OneStep)
 ---------------------------------------

 ------------------------------
 trichloromethyl, B3LYP/pcseg-2
 ------------------------------
 Symbolic Z-matrix:
 Charge =  0 Multiplicity = 2

 SCF Done:  E(UB3LYP) =  -1418.76508691     A.U. after   14 cycles
 SCF Done:  E(UB3LYP) =  -1418.76508693     A.U. after    8 cycles
 Optimization completed.
    -- Stationary point found.
 Normal termination of Gaussian 16 at Fri Sep 29 13:41:45 2023.

 ------------------------------------------------------------------
 #N Geom=AllCheck Guess=TCheck SCRF=Check GenChk UB3LYP/ChkBas Freq
 ------------------------------------------------------------------

 Structure from the checkpoint file:  "ccl3.chk"
 ------------------------------
 trichloromethyl, B3LYP/pcseg-2
 ------------------------------
 Charge =  0 Multiplicity = 2

 SCF Done:  E(UB3LYP) =  -1418.76508693     A.U. after    1 cycles

  Exact polarizability:  53.605  -0.000  53.606   0.000  -0.000  28.582
 Approx polarizability:  81.678  -0.000  81.678   0.000   0.000  44.506

                      1                      2                      3
                      E                      E                     A1
 Frequencies --    270.4208               270.4223               325.2080
 Red. masses --     31.8120                31.8120                14.4030
 Frc consts  --      1.3706                 1.3706                 0.8975
 IR Inten    --      0.0417                 0.0417                 0.4208

                      4                      5                      6
                     A1                      E                      E
 Frequencies --    481.6547               867.7780               867.7848
 Red. masses --     27.1136                13.4115                13.4115
 Frc consts  --      3.7060                 5.9504                 5.9505
 IR Inten    --      0.0256               206.7351               206.7504

 - Thermochemistry -
 -------------------
 Temperature   298.150 Kelvin.  Pressure   1.00000 Atm.
 Atom     1 has atomic number  6 and mass  12.00000

 Molecular mass:   116.90656 amu.
 Principal axes and moments of inertia in atomic units:
                           1         2         3
     Eigenvalues --   540.66866 540.668661074.41985
           X           -0.11035   0.99389   0.00000
           Y            0.99389   0.11035   0.00000
           Z           -0.00000  -0.00000   1.00000
 This molecule is an oblate symmetric top.
 Rotational symmetry number  3.
 Warning -- assumption of classical behavior for rotation
           may cause significant error
 Rotational temperatures (Kelvin)      0.16020     0.16020     0.08061
 Rotational constants (GHZ):           3.33798     3.33798     1.67974
 Zero-point vibrational energy      18442.0 (Joules/Mol)
                                    4.40775 (Kcal/Mol)
 Warning -- explicit consideration of   4 degrees of freedom as
           vibrations may cause significant error
 Vibrational temperatures:    389.08   389.08   467.90   692.99  1248.54
          (Kelvin)           1248.55

 Zero-point correction=                           0.007024 (Hartree/Particle)
 Thermal correction to Energy=                    0.011523
 Thermal correction to Enthalpy=                  0.012467
 Thermal correction to Gibbs Free Energy=        -0.021797
 Sum of electronic and zero-point Energies=          -1418.758063
 Sum of electronic and thermal Energies=             -1418.753564
 Sum of electronic and thermal Enthalpies=           -1418.752620
 Sum of electronic and thermal Free Energies=        -1418.786884

                     E (Thermal)             CV                S
                      KCal/Mol        Cal/Mol-Kelvin    Cal/Mol-Kelvin
 Total                    7.231             13.424             72.115
 Electronic               0.000              0.000              1.377
 Translational            0.889              2.981             40.184
 Rotational               0.889              2.981             25.060
 Vibrational              5.453              7.462              5.494
 Vibration     1          0.674              1.728              1.594
 Vibration     2          0.674              1.728              1.594
 Vibration     3          0.709              1.625              1.284
 Vibration     4          0.838              1.291              0.706

 Optimization completed.
    -- Stationary point found.
 Normal termination of Gaussian 16 at Fri Sep 29 13:42:39 2023.
 Gaussian 16:  ES64L-G16RevB.01 20-Dec-2017

 ---------------------------------
 # rohf/gen geom=check guess=check
 ---------------------------------

 ---------------------------------
 trichloromethyl, ROHF/cc-pVTZ-F12
 ---------------------------------
 Structure from the checkpoint file:  "ccl3.chk"
 Charge =  0 Multiplicity = 2

                         Standard orientation:
 ---------------------------------------------------------------------
 Center     Atomic      Atomic             Coordinates (Angstroms)
 Number     Number       Type             X           Y           Z
 ---------------------------------------------------------------------
      1          6           0        0.000000    0.000000    0.268338
      2         17           0       -0.000000    1.693506   -0.031569
      3         17           0        1.466620   -0.846753   -0.031569
      4         17           0       -1.466620   -0.846753   -0.031569
 ---------------------------------------------------------------------

 SCF Done:  E(ROHF) =  -1416.38902785     A.U. after   14 cycles

 The electronic state is 2-A1.
 Alpha  occ. eigenvalues -- -104.87754-104.87754-104.87754 -11.41445 -10.60240
 Alpha  occ. eigenvalues --  -10.60240 -10.60238  -8.06934  -8.06934  -8.06933
 Alpha  occ. eigenvalues --   -8.06763  -8.06763  -8.06763  -8.06718  -8.06718
 Alpha  occ. eigenvalues --   -8.06717  -1.24151  -1.12889  -1.12889  -0.80327
 Alpha  occ. eigenvalues --   -0.64009  -0.64009  -0.57166  -0.50374  -0.50374
 Alpha  occ. eigenvalues --   -0.48337  -0.48337  -0.46175  -0.10444
 Alpha virt. eigenvalues --    0.05026   0.06519   0.06519   0.08420   0.09658
 Alpha virt. eigenvalues --    0.10689   0.10689   0.11558   0.11558   0.13554
 Alpha virt. eigenvalues --    0.14441   0.14931   0.14931   0.16627   0.21683

 Mulliken charges and spin densities:
               1          2
     1  C   -0.181195   0.840380
     2  Cl   0.060398   0.053207
     3  Cl   0.060398   0.053207
     4  Cl   0.060398   0.053207
 Sum of Mulliken charges =  -0.00000   1.00000

 Dipole moment (field-independent basis, Debye):
    X=              0.0000    Y=             -0.0000    Z=              0.0394  Tot=              0.0394
 Quadrupole moment (field-independent basis, Debye-Ang):
   XX=            -42.5462   YY=            -42.5462   ZZ=            -43.5733
   XY=              0.0000   XZ=              0.0000   YZ=             -0.0000

 Normal termination of Gaussian 16 at Fri Sep 29 13:42:59 2023.
