 Gaussian 16, Revision B.01,
 Gaussian 16:  ES64L-G16RevB.01 20-Dec-2017

 --------------------
 # b3lyp/gen opt freq
 --------------------

 ------------------------------
 trichloromethyl, B3LYP/pcseg-2
 ------------------------------
 Symbolic Z-matrix:
 Charge =  0 Multiplicity = 2

 SCF Done:  E(UB3LYP) =  -1418.76507160     A.U. after   14 cycles
 SCF Done:  E(UB3LYP) =  -1418.76508510     A.U. after    9 cycles
 SCF Done:  E(UB3LYP) =  -1418.76508691     A.U. after    9 cycles
 Optimization completed.
    -- Stationary point found.
 Normal termination of Gaussian 16 at Wed Jun 15 16:47:19 2022.

 ------------------------------------------------------------------
 #N Geom=AllCheck Guess=TCheck SCRF=Check GenChk UB3LYP/ChkBas Freq
 ------------------------------------------------------------------

 Structure from the checkpoint file:  "/wrk/irikura/Gau-32653.chk"
 ------------------------------
 trichloromethyl, B3LYP/pcseg-2
 ------------------------------
 Charge =  0 Multiplicity = 2

                         Standard orientation:
 ---------------------------------------------------------------------
 Center     Atomic      Atomic             Coordinates (Angstroms)
 Number     Number       Type             X           Y           Z
 ---------------------------------------------------------------------
      1          6           0        0.000000    0.000000    0.266396
      2         17           0        0.000000    1.693980   -0.031341
      3         17           0        1.467030   -0.846990   -0.031341
      4         17           0       -1.467030   -0.846990   -0.031341
 ---------------------------------------------------------------------

 SCF Done:  E(UB3LYP) =  -1418.76508691     A.U. after    1 cycles

 The electronic state is 2-A1.
 Alpha  occ. eigenvalues -- -101.55288-101.55288-101.55288 -10.35026  -9.49756
 Alpha  occ. eigenvalues --   -9.49756  -9.49756  -7.25921  -7.25921  -7.25921
 Alpha  occ. eigenvalues --   -7.25133  -7.25132  -7.25132  -7.24973  -7.24973
 Alpha  occ. eigenvalues --   -7.24973  -0.96391  -0.86732  -0.86732  -0.62811
 Alpha  occ. eigenvalues --   -0.49938  -0.49938  -0.45955  -0.37109  -0.37109
 Alpha  occ. eigenvalues --   -0.35499  -0.35499  -0.32908  -0.23334
 Alpha virt. eigenvalues --   -0.04698   0.03104   0.03104   0.09990   0.15563
 Alpha virt. eigenvalues --    0.15563   0.17578   0.26046   0.26046   0.29678
 Alpha virt. eigenvalues --    0.31440   0.31440   0.32519   0.32519   0.33600

  Beta  occ. eigenvalues -- -101.55212-101.55212-101.55212 -10.33528  -9.49682
  Beta  occ. eigenvalues --   -9.49682  -9.49681  -7.25878  -7.25878  -7.25878
  Beta  occ. eigenvalues --   -7.24929  -7.24929  -7.24929  -7.24893  -7.24893
  Beta  occ. eigenvalues --   -7.24893  -0.95234  -0.86279  -0.86279  -0.60732
  Beta  occ. eigenvalues --   -0.49206  -0.49206  -0.42436  -0.36656  -0.36656
  Beta  occ. eigenvalues --   -0.34679  -0.34679  -0.32740
  Beta virt. eigenvalues --   -0.10640  -0.03304   0.04260   0.04260   0.10320
  Beta virt. eigenvalues --    0.15653   0.15653   0.18965   0.26226   0.26226
  Beta virt. eigenvalues --    0.30313   0.31566   0.31566   0.32738   0.32738

 Mulliken charges and spin densities:
               1          2
     1  C    0.091576   0.748571
     2  Cl  -0.030525   0.083810
     3  Cl  -0.030525   0.083810
     4  Cl  -0.030525   0.083810
 Sum of Mulliken charges =   0.00000   1.00000

 Dipole moment (field-independent basis, Debye):
    X=             -0.0000    Y=              0.0000    Z=             -0.1788  Tot=              0.1788
 Quadrupole moment (field-independent basis, Debye-Ang):
   XX=            -42.2304   YY=            -42.2304   ZZ=            -43.5060
   XY=              0.0000   XZ=             -0.0000   YZ=             -0.0000

  Exact polarizability:  53.613   0.000  53.612  -0.000  -0.000  28.569
 Approx polarizability:  81.686   0.000  81.686   0.000   0.000  44.477

                      1                      2                      3
                      E                      E                     A1
 Frequencies --    270.3502               270.3527               323.4843
 Red. masses --     31.8128                31.8128                14.3472
 Frc consts  --      1.3700                 1.3700                 0.8846
 IR Inten    --      0.0425                 0.0424                 0.4315

                      4                      5                      6
                     A1                      E                      E
 Frequencies --    480.7837               867.7611               867.7685
 Red. masses --     27.3138                13.4105                13.4105
 Frc consts  --      3.7199                 5.9497                 5.9498
 IR Inten    --      0.0258               206.5020               206.4867

 - Thermochemistry -
 -------------------
 Temperature   298.150 Kelvin.  Pressure   1.00000 Atm.
 Atom     1 has atomic number  6 and mass  12.00000

 Molecular mass:   116.90656 amu.
 Principal axes and moments of inertia in atomic units:
                           1         2         3
     Eigenvalues --   540.91942 540.919421075.02114
           X            0.95406   0.29962   0.00000
           Y           -0.29962   0.95406   0.00000
           Z           -0.00000  -0.00000   1.00000
 This molecule is an oblate symmetric top.
 Rotational symmetry number  3.
 Warning -- assumption of classical behavior for rotation
           may cause significant error
 Rotational temperatures (Kelvin)      0.16012     0.16012     0.08057
 Rotational constants (GHZ):           3.33643     3.33643     1.67880
 Zero-point vibrational energy      18425.5 (Joules/Mol)
                                    4.40380 (Kcal/Mol)
 Warning -- explicit consideration of   4 degrees of freedom as
           vibrations may cause significant error
 Vibrational temperatures:    388.97   388.98   465.42   691.74  1248.51
          (Kelvin)           1248.53

 Zero-point correction=                           0.007018 (Hartree/Particle)
 Thermal correction to Energy=                    0.011520
 Thermal correction to Enthalpy=                  0.012464
 Thermal correction to Gibbs Free Energy=        -0.021806
 Sum of electronic and zero-point Energies=          -1418.758069
 Sum of electronic and thermal Energies=             -1418.753567
 Sum of electronic and thermal Enthalpies=           -1418.752623
 Sum of electronic and thermal Free Energies=        -1418.786893

                     E (Thermal)             CV                S
                      KCal/Mol        Cal/Mol-Kelvin    Cal/Mol-Kelvin
 Total                    7.229             13.429             72.128
 Electronic               0.000              0.000              1.377
 Translational            0.889              2.981             40.184
 Rotational               0.889              2.981             25.061
 Vibrational              5.451              7.468              5.506
 Vibration     1          0.674              1.728              1.594
 Vibration     2          0.674              1.728              1.594
 Vibration     3          0.708              1.628              1.292
 Vibration     4          0.837              1.293              0.708

 Optimization completed.
    -- Stationary point found.
 Normal termination of Gaussian 16 at Wed Jun 15 16:47:36 2022.
