 Gaussian 16, Revision B.01,

 ---------------------------------------
 # b3lyp/gen opt freq CPHF(Grid=OneStep)
 ---------------------------------------

 -------------------
 CCl4, B3LYP/pcseg-2
 -------------------
 Symbolic Z-matrix:
 Charge =  0 Multiplicity = 1

 SCF Done:  E(RB3LYP) =  -1879.03731560     A.U. after   11 cycles
 Optimization completed.
    -- Stationary point found.
 Normal termination of Gaussian 16 at Thu Sep 28 18:25:11 2023.

 ------------------------------------------------------------------
 #N Geom=AllCheck Guess=TCheck SCRF=Check GenChk RB3LYP/ChkBas Freq
 ------------------------------------------------------------------

 Structure from the checkpoint file:  "ccl4.chk"
 -------------------
 CCl4, B3LYP/pcseg-2
 -------------------
 Charge =  0 Multiplicity = 1

 SCF Done:  E(RB3LYP) =  -1879.03731560     A.U. after    1 cycles

  Exact polarizability:  57.541  -0.000  57.541   0.000   0.000  57.541
 Approx polarizability:  89.995  -0.000  89.995   0.000  -0.000  89.995

                      1                      2                      3
                      E                      E                     T2
 Frequencies --    214.3899               214.3899               310.4205
 Red. masses --     34.9689                34.9689                32.4613
 Frc consts  --      0.9470                 0.9470                 1.8430
 IR Inten    --      0.0000                 0.0000                 0.3679

                      4                      5                      6
                     T2                     T2                     A1
 Frequencies --    310.4205               310.4205               449.1533
 Red. masses --     32.4613                32.4613                34.9689
 Frc consts  --      1.8430                 1.8430                 4.1564
 IR Inten    --      0.3679                 0.3679                 0.0000

                      7                      8                      9
                     T2                     T2                     T2
 Frequencies --    740.3150               740.3150               740.3150
 Red. masses --     13.0209                13.0209                13.0209
 Frc consts  --      4.2046                 4.2046                 4.2046
 IR Inten    --    185.9240               185.9240               185.9240

 - Thermochemistry -
 -------------------
 Temperature   298.150 Kelvin.  Pressure   1.00000 Atm.
 Atom     1 has atomic number  6 and mass  12.00000

 Molecular mass:   151.87541 amu.
 Principal axes and moments of inertia in atomic units:
                           1         2         3
     Eigenvalues --  1059.477531059.477531059.47753
           X           -0.00000   1.00000   0.00000
           Y            1.00000  -0.00000   0.00000
           Z           -0.00000  -0.00000   1.00000
 This molecule is a spherical top.
 Rotational symmetry number 12.
 Warning -- assumption of classical behavior for rotation
           may cause significant error
 Rotational temperatures (Kelvin)      0.08175     0.08175     0.08175
 Rotational constants (GHZ):           1.70343     1.70343     1.70343
 Zero-point vibrational energy      24105.6 (Joules/Mol)
                                    5.76137 (Kcal/Mol)
 Warning -- explicit consideration of   6 degrees of freedom as
           vibrations may cause significant error
 Vibrational temperatures:    308.46   308.46   446.63   446.63   446.63
          (Kelvin)            646.23  1065.15  1065.15  1065.15

 Zero-point correction=                           0.009181 (Hartree/Particle)
 Thermal correction to Energy=                    0.014870
 Thermal correction to Enthalpy=                  0.015814
 Thermal correction to Gibbs Free Energy=        -0.019473
 Sum of electronic and zero-point Energies=          -1879.028134
 Sum of electronic and thermal Energies=             -1879.022446
 Sum of electronic and thermal Enthalpies=           -1879.021502
 Sum of electronic and thermal Free Energies=        -1879.056788

                     E (Thermal)             CV                S
                      KCal/Mol        Cal/Mol-Kelvin    Cal/Mol-Kelvin
 Total                    9.331             18.186             74.267
 Electronic               0.000              0.000              0.000
 Translational            0.889              2.981             40.964
 Rotational               0.889              2.981             23.628
 Vibrational              7.553             12.225              9.676
 Vibration     1          0.644              1.819              2.006
 Vibration     2          0.644              1.819              2.006
 Vibration     3          0.699              1.654              1.360
 Vibration     4          0.699              1.654              1.360
 Vibration     5          0.699              1.654              1.360
 Vibration     6          0.808              1.363              0.798

 Optimization completed.
    -- Stationary point found.
 Normal termination of Gaussian 16 at Thu Sep 28 18:26:05 2023.
 Gaussian 16:  ES64L-G16RevB.01 20-Dec-2017

 ---------------------------------
 # rohf/gen geom=check guess=check
 ---------------------------------

 ----------------------
 CCl4, ROHF/cc-pVTZ-F12
 ----------------------
 Structure from the checkpoint file:  "ccl4.chk"
 Charge =  0 Multiplicity = 1

                         Standard orientation:
 ---------------------------------------------------------------------
 Center     Atomic      Atomic             Coordinates (Angstroms)
 Number     Number       Type             X           Y           Z
 ---------------------------------------------------------------------
      1          6           0        0.000000    0.000000    0.000000
      2         17           0        1.029820    1.029820    1.029820
      3         17           0       -1.029820   -1.029820    1.029820
      4         17           0       -1.029820    1.029820   -1.029820
      5         17           0        1.029820   -1.029820   -1.029820
 ---------------------------------------------------------------------

 SCF Done:  E(ROHF) =  -1875.93430218     A.U. after   10 cycles

 The electronic state is 1-A1.
 Alpha  occ. eigenvalues -- -104.87747-104.87747-104.87747-104.87747 -11.50055
 Alpha  occ. eigenvalues --  -10.60253 -10.60253 -10.60253 -10.60251  -8.06934
 Alpha  occ. eigenvalues --   -8.06934  -8.06934  -8.06933  -8.06747  -8.06747
 Alpha  occ. eigenvalues --   -8.06747  -8.06747  -8.06747  -8.06747  -8.06747
 Alpha  occ. eigenvalues --   -8.06747  -1.27379  -1.12538  -1.12538  -1.12538
 Alpha  occ. eigenvalues --   -0.83441  -0.65418  -0.65418  -0.65418  -0.53055
 Alpha  occ. eigenvalues --   -0.53055  -0.48852  -0.48852  -0.48852  -0.46175
 Alpha  occ. eigenvalues --   -0.46175  -0.46175
 Alpha virt. eigenvalues --    0.04197   0.06666   0.06666   0.06666   0.08036
 Alpha virt. eigenvalues --    0.10006   0.10006   0.10006   0.11382   0.11382
 Alpha virt. eigenvalues --    0.14459   0.14459   0.14459   0.16761   0.16761

 Mulliken charges and spin densities:
               1          2
     1  C   -0.310441   0.000000
     2  Cl   0.077610   0.000000
     3  Cl   0.077610   0.000000
     4  Cl   0.077610   0.000000
     5  Cl   0.077610   0.000000
 Sum of Mulliken charges =  -0.00000   0.00000

 Dipole moment (field-independent basis, Debye):
    X=              0.0000    Y=              0.0000    Z=              0.0000  Tot=              0.0000
 Quadrupole moment (field-independent basis, Debye-Ang):
   XX=            -55.3338   YY=            -55.3338   ZZ=            -55.3338
   XY=             -0.0000   XZ=             -0.0000   YZ=             -0.0000

 Normal termination of Gaussian 16 at Thu Sep 28 18:26:22 2023.
