 Gaussian 16, Revision B.01,
 Gaussian 16:  ES64L-G16RevB.01 20-Dec-2017

 --------------------
 # b3lyp/gen opt freq
 --------------------

 -------------------
 CCl4, B3LYP/pcseg-2
 -------------------
 Symbolic Z-matrix:
 Charge =  0 Multiplicity = 1

 SCF Done:  E(RB3LYP) =  -1879.02179434     A.U. after   11 cycles
 SCF Done:  E(RB3LYP) =  -1879.03705881     A.U. after   10 cycles
 SCF Done:  E(RB3LYP) =  -1879.03731560     A.U. after    9 cycles
 Optimization completed.
    -- Stationary point found.
 Normal termination of Gaussian 16 at Wed Jun 15 10:25:34 2022.

 ------------------------------------------------------------------
 #N Geom=AllCheck Guess=TCheck SCRF=Check GenChk RB3LYP/ChkBas Freq
 ------------------------------------------------------------------

 Structure from the checkpoint file:  "/wrk/irikura/Gau-2526.chk"
 -------------------
 CCl4, B3LYP/pcseg-2
 -------------------
 Charge =  0 Multiplicity = 1

                         Standard orientation:
 ---------------------------------------------------------------------
 Center     Atomic      Atomic             Coordinates (Angstroms)
 Number     Number       Type             X           Y           Z
 ---------------------------------------------------------------------
      1          6           0        0.000000    0.000000    0.000000
      2         17           0        1.029820    1.029820    1.029820
      3         17           0       -1.029820   -1.029820    1.029820
      4         17           0       -1.029820    1.029820   -1.029820
      5         17           0        1.029820   -1.029820   -1.029820
 ---------------------------------------------------------------------

 SCF Done:  E(RB3LYP) =  -1879.03731560     A.U. after    1 cycles

 The electronic state is 1-A1.
 Alpha  occ. eigenvalues -- -101.55004-101.55004-101.55004-101.55004 -10.42307
 Alpha  occ. eigenvalues --   -9.49532  -9.49532  -9.49532  -9.49531  -7.25778
 Alpha  occ. eigenvalues --   -7.25778  -7.25778  -7.25778  -7.24751  -7.24751
 Alpha  occ. eigenvalues --   -7.24751  -7.24751  -7.24751  -7.24751  -7.24751
 Alpha  occ. eigenvalues --   -7.24751  -0.98371  -0.86132  -0.86132  -0.86132
 Alpha  occ. eigenvalues --   -0.63834  -0.50852  -0.50852  -0.50852  -0.38449
 Alpha  occ. eigenvalues --   -0.38449  -0.35973  -0.35973  -0.35973  -0.32705
 Alpha  occ. eigenvalues --   -0.32705  -0.32705
 Alpha virt. eigenvalues --   -0.07377  -0.01867  -0.01867  -0.01867   0.11233
 Alpha virt. eigenvalues --    0.16836   0.16836   0.16836   0.24802   0.24802
 Alpha virt. eigenvalues --    0.24802   0.30798   0.30798   0.32494   0.32494

 Mulliken charges:
               1
     1  C    0.129234
     2  Cl  -0.032308
     3  Cl  -0.032308
     4  Cl  -0.032308
     5  Cl  -0.032308
 Sum of Mulliken charges =   0.00000

 Dipole moment (field-independent basis, Debye):
    X=              0.0000    Y=             -0.0000    Z=              0.0000  Tot=              0.0000
 Quadrupole moment (field-independent basis, Debye-Ang):
   XX=            -55.3047   YY=            -55.3047   ZZ=            -55.3047
   XY=              0.0000   XZ=             -0.0000   YZ=              0.0000

  Exact polarizability:  57.541  -0.000  57.541   0.000   0.000  57.541
 Approx polarizability:  89.995   0.000  89.995  -0.000  -0.000  89.995

                      1                      2                      3
                      E                      E                     T2
 Frequencies --    214.3895               214.3895               310.4165
 Red. masses --     34.9689                34.9689                32.4613
 Frc consts  --      0.9470                 0.9470                 1.8429
 IR Inten    --      0.0000                 0.0000                 0.3676

                      4                      5                      6
                     T2                     T2                     A1
 Frequencies --    310.4165               310.4165               449.1554
 Red. masses --     32.4613                32.4613                34.9689
 Frc consts  --      1.8429                 1.8429                 4.1565
 IR Inten    --      0.3676                 0.3676                 0.0000

                      7                      8                      9
                     T2                     T2                     T2
 Frequencies --    740.2974               740.2974               740.2974
 Red. masses --     13.0209                13.0209                13.0209
 Frc consts  --      4.2044                 4.2044                 4.2044
 IR Inten    --    185.9041               185.9041               185.9041

 - Thermochemistry -
 -------------------
 Temperature   298.150 Kelvin.  Pressure   1.00000 Atm.
 Atom     1 has atomic number  6 and mass  12.00000

 Molecular mass:   151.87541 amu.
 Principal axes and moments of inertia in atomic units:
                           1         2         3
     Eigenvalues --  1059.476561059.476561059.47656
           X            0.00000   1.00000   0.00000
           Y            1.00000   0.00000   0.00000
           Z            0.00000   0.00000   1.00000
 This molecule is a spherical top.
 Rotational symmetry number 12.
 Warning -- assumption of classical behavior for rotation
           may cause significant error
 Rotational temperatures (Kelvin)      0.08175     0.08175     0.08175
 Rotational constants (GHZ):           1.70343     1.70343     1.70343
 Zero-point vibrational energy      24105.2 (Joules/Mol)
                                    5.76128 (Kcal/Mol)
 Warning -- explicit consideration of   6 degrees of freedom as
           vibrations may cause significant error
 Vibrational temperatures:    308.46   308.46   446.62   446.62   446.62
          (Kelvin)            646.23  1065.12  1065.12  1065.12

 Zero-point correction=                           0.009181 (Hartree/Particle)
 Thermal correction to Energy=                    0.014870
 Thermal correction to Enthalpy=                  0.015814
 Thermal correction to Gibbs Free Energy=        -0.019473
 Sum of electronic and zero-point Energies=          -1879.028134
 Sum of electronic and thermal Energies=             -1879.022446
 Sum of electronic and thermal Enthalpies=           -1879.021502
 Sum of electronic and thermal Free Energies=        -1879.056789

                     E (Thermal)             CV                S
                      KCal/Mol        Cal/Mol-Kelvin    Cal/Mol-Kelvin
 Total                    9.331             18.186             74.267
 Electronic               0.000              0.000              0.000
 Translational            0.889              2.981             40.964
 Rotational               0.889              2.981             23.628
 Vibrational              7.553             12.225              9.676
 Vibration     1          0.644              1.819              2.006
 Vibration     2          0.644              1.819              2.006
 Vibration     3          0.699              1.654              1.360
 Vibration     4          0.699              1.654              1.360
 Vibration     5          0.699              1.654              1.360
 Vibration     6          0.808              1.363              0.798

 Optimization completed.
    -- Stationary point found.
 Normal termination of Gaussian 16 at Wed Jun 15 10:25:58 2022.
