 Gaussian 16, Revision B.01,
 Gaussian 16:  ES64L-G16RevB.01 20-Dec-2017

 --------------------
 # b3lyp/gen opt freq
 --------------------

 -------------------------------
 chlormethylidyne, B3LYP/pcseg-2
 -------------------------------
 Symbolic Z-matrix:
 Charge =  0 Multiplicity = 2

 SCF Done:  E(UB3LYP) =  -498.189650231     A.U. after   13 cycles
 SCF Done:  E(UB3LYP) =  -498.189702988     A.U. after    9 cycles
 SCF Done:  E(UB3LYP) =  -498.189713018     A.U. after    9 cycles
 Optimization completed.
    -- Stationary point found.
 Normal termination of Gaussian 16 at Thu Jun 16 10:37:23 2022.

 ------------------------------------------------------------------
 #N Geom=AllCheck Guess=TCheck SCRF=Check GenChk UB3LYP/ChkBas Freq
 ------------------------------------------------------------------

 Structure from the checkpoint file:  "/wrk/irikura/Gau-5263.chk"
 -------------------------------
 chlormethylidyne, B3LYP/pcseg-2
 -------------------------------
 Charge =  0 Multiplicity = 2

                         Standard orientation:
 ---------------------------------------------------------------------
 Center     Atomic      Atomic             Coordinates (Angstroms)
 Number     Number       Type             X           Y           Z
 ---------------------------------------------------------------------
      1          6           0        0.000000    0.000000   -1.228484
      2         17           0        0.000000    0.000000    0.433582
 ---------------------------------------------------------------------

 SCF Done:  E(UB3LYP) =  -498.189713018     A.U. after    1 cycles

 Unable to determine electronic state:  an orbital has unidentified symmetry.
 Alpha  occ. eigenvalues -- -101.57824 -10.29843  -9.52314  -7.28157  -7.27868
 Alpha  occ. eigenvalues --   -7.27683  -0.92977  -0.61270  -0.42057  -0.41117
 Alpha  occ. eigenvalues --   -0.36396  -0.22781
 Alpha virt. eigenvalues --   -0.13209   0.03498   0.11000   0.17279   0.17890
 Alpha virt. eigenvalues --    0.18400   0.29270   0.31829   0.31876   0.49185
 Alpha virt. eigenvalues --    0.49243   0.49275   0.49559   0.68273   0.91942

  Beta  occ. eigenvalues -- -101.57744 -10.28342  -9.52233  -7.28132  -7.27857
  Beta  occ. eigenvalues --   -7.27361  -0.92020  -0.58339  -0.40923  -0.39315
  Beta  occ. eigenvalues --   -0.34035
  Beta virt. eigenvalues --   -0.11736  -0.07811   0.04619   0.11290   0.18226
  Beta virt. eigenvalues --    0.18957   0.19703   0.29806   0.31893   0.32768
  Beta virt. eigenvalues --    0.49678   0.49955   0.49959   0.51391   0.69026

 Mulliken charges and spin densities:
               1          2
     1  C   -0.075205   0.915100
     2  Cl   0.075205   0.084900
 Sum of Mulliken charges =   0.00000   1.00000

 Dipole moment (field-independent basis, Debye):
    X=              0.0000    Y=              0.0000    Z=              1.4926  Tot=              1.4926
 Quadrupole moment (field-independent basis, Debye-Ang):
   XX=            -19.1890   YY=            -17.3585   ZZ=            -20.6451
   XY=              0.0000   XZ=              0.0000   YZ=              0.0000

  Exact polarizability:  15.821   0.000  15.231  -0.000  -0.000  32.935
 Approx polarizability:  20.062  -0.000  23.635  -0.000  -0.000  57.442

                      1
                     SG
 Frequencies --    850.0763
 Red. masses --     14.4199
 Frc consts  --      6.1394
 IR Inten    --    151.8950

 - Thermochemistry -
 -------------------
 Temperature   298.150 Kelvin.  Pressure   1.00000 Atm.
 Atom     1 has atomic number  6 and mass  12.00000

 Molecular mass:    46.96885 amu.
 Principal axes and moments of inertia in atomic units:
                           1         2         3
     Eigenvalues --     0.00000  88.13471  88.13471
           X            0.00000  -0.00000   1.00000
           Y            0.00000   1.00000   0.00000
           Z            1.00000   0.00000   0.00000
 This molecule is a prolate symmetric top.
 Rotational symmetry number  1.
 Rotational temperature (Kelvin)      0.98274
 Rotational constant (GHZ):          20.477076
 Zero-point vibrational energy       5084.6 (Joules/Mol)
                                    1.21525 (Kcal/Mol)
 Vibrational temperatures:   1223.07
          (Kelvin)

 Zero-point correction=                           0.001937 (Hartree/Particle)
 Thermal correction to Energy=                    0.004362
 Thermal correction to Enthalpy=                  0.005306
 Thermal correction to Gibbs Free Energy=        -0.019570
 Sum of electronic and zero-point Energies=           -498.187776
 Sum of electronic and thermal Energies=              -498.185351
 Sum of electronic and thermal Enthalpies=            -498.184407
 Sum of electronic and thermal Free Energies=         -498.209283

                     E (Thermal)             CV                S
                      KCal/Mol        Cal/Mol-Kelvin    Cal/Mol-Kelvin
 Total                    2.737              5.540             52.357
 Electronic               0.000              0.000              1.377
 Translational            0.889              2.981             37.465
 Rotational               0.592              1.987             13.344
 Vibrational              1.256              0.572              0.170

 Optimization completed.
    -- Stationary point found.
 Normal termination of Gaussian 16 at Thu Jun 16 10:37:28 2022.
