 Gaussian 16, Revision B.01,
 Gaussian 16:  ES64L-G16RevB.01 20-Dec-2017

 --------------------
 # b3lyp/gen opt freq
 --------------------

 --------------------------------
 fluoromethylidyne, B3LYP/pcseg-2
 --------------------------------
 Symbolic Z-matrix:
 Charge =  0 Multiplicity = 2

 SCF Done:  E(UB3LYP) =  -137.840590645     A.U. after   12 cycles
 SCF Done:  E(UB3LYP) =  -137.840994450     A.U. after    9 cycles
 SCF Done:  E(UB3LYP) =  -137.841058623     A.U. after    8 cycles
 Optimization completed.
    -- Stationary point found.
 Normal termination of Gaussian 16 at Wed Jun 15 15:18:12 2022.

 ------------------------------------------------------------------
 #N Geom=AllCheck Guess=TCheck SCRF=Check GenChk UB3LYP/ChkBas Freq
 ------------------------------------------------------------------

 Structure from the checkpoint file:  "/wrk/irikura/Gau-9400.chk"
 --------------------------------
 fluoromethylidyne, B3LYP/pcseg-2
 --------------------------------
 Charge =  0 Multiplicity = 2

                         Standard orientation:
 ---------------------------------------------------------------------
 Center     Atomic      Atomic             Coordinates (Angstroms)
 Number     Number       Type             X           Y           Z
 ---------------------------------------------------------------------
      1          6           0        0.000000    0.000000   -0.765353
      2          9           0        0.000000    0.000000    0.510236
 ---------------------------------------------------------------------

 SCF Done:  E(UB3LYP) =  -137.841058623     A.U. after    1 cycles

 Unable to determine electronic state:  an orbital has unidentified symmetry.
 Alpha  occ. eigenvalues --  -24.78804 -10.32647  -1.33478  -0.70440  -0.56290
 Alpha  occ. eigenvalues --   -0.55114  -0.42204  -0.22253
 Alpha virt. eigenvalues --   -0.11502   0.07781   0.15228   0.16094   0.17125
 Alpha virt. eigenvalues --    0.31774   0.38371   0.46259   0.46444   0.79367
 Alpha virt. eigenvalues --    0.87925   0.88463   1.01734   1.02164   1.15234

  Beta  occ. eigenvalues --  -24.78351 -10.31076  -1.32515  -0.68549  -0.54792
  Beta  occ. eigenvalues --   -0.52991  -0.38580
  Beta virt. eigenvalues --   -0.09955  -0.05747   0.08237   0.16311   0.17539
  Beta virt. eigenvalues --    0.19291   0.33520   0.38611   0.46260   0.47096
  Beta virt. eigenvalues --    0.79515   0.92648   0.92682   1.02495   1.05584

 Mulliken charges and spin densities:
               1          2
     1  C    0.096512   0.951256
     2  F   -0.096512   0.048744
 Sum of Mulliken charges =   0.00000   1.00000

 Dipole moment (field-independent basis, Debye):
    X=              0.0000    Y=              0.0000    Z=              0.7430  Tot=              0.7430
 Quadrupole moment (field-independent basis, Debye-Ang):
   XX=             -9.7421   YY=            -11.5097   ZZ=            -12.4109
   XY=              0.0000   XZ=              0.0000   YZ=              0.0000

  Exact polarizability:  10.402  -0.000  11.544   0.000   0.000  13.964
 Approx polarizability:  14.934  -0.000  12.022  -0.000  -0.000  18.841

                      1
                     SG
 Frequencies --   1293.8668
 Red. masses --     13.9958
 Frc consts  --     13.8047
 IR Inten    --    199.7558

 - Thermochemistry -
 -------------------
 Temperature   298.150 Kelvin.  Pressure   1.00000 Atm.
 Atom     1 has atomic number  6 and mass  12.00000

 Molecular mass:    30.99840 amu.
 Principal axes and moments of inertia in atomic units:
                           1         2         3
     Eigenvalues --     0.00000  42.73445  42.73445
           X            0.00000  -0.00000   1.00000
           Y            0.00000   1.00000   0.00000
           Z            1.00000   0.00000   0.00000
 This molecule is a prolate symmetric top.
 Rotational symmetry number  1.
 Rotational temperature (Kelvin)      2.02679
 Rotational constant (GHZ):          42.231528
 Zero-point vibrational energy       7739.0 (Joules/Mol)
                                    1.84968 (Kcal/Mol)
 Vibrational temperatures:   1861.59
          (Kelvin)

 Zero-point correction=                           0.002948 (Hartree/Particle)
 Thermal correction to Energy=                    0.005320
 Thermal correction to Enthalpy=                  0.006264
 Thermal correction to Gibbs Free Energy=        -0.017273
 Sum of electronic and zero-point Energies=           -137.838111
 Sum of electronic and thermal Energies=              -137.835739
 Sum of electronic and thermal Enthalpies=            -137.834795
 Sum of electronic and thermal Free Energies=         -137.858332

                     E (Thermal)             CV                S
                      KCal/Mol        Cal/Mol-Kelvin    Cal/Mol-Kelvin
 Total                    3.338              5.119             49.538
 Electronic               0.000              0.000              1.377
 Translational            0.889              2.981             36.227
 Rotational               0.592              1.987             11.906
 Vibrational              1.857              0.151              0.028

 Optimization completed.
    -- Stationary point found.
 Normal termination of Gaussian 16 at Wed Jun 15 15:18:18 2022.
