 Gaussian 16, Revision B.01,
 Gaussian 16:  ES64L-G16RevB.01 20-Dec-2017

 --------------------
 # b3lyp/gen opt freq
 --------------------

 --------------------------------
 difluoromethylene, B3LYP/pcseg-2
 --------------------------------
 Symbolic Z-matrix:
 Charge =  0 Multiplicity = 1

 SCF Done:  E(RB3LYP) =  -237.803978134     A.U. after   10 cycles
 SCF Done:  E(RB3LYP) =  -237.803974305     A.U. after    7 cycles
 SCF Done:  E(RB3LYP) =  -237.803990004     A.U. after    6 cycles
 Optimization completed.
    -- Stationary point found.
 Normal termination of Gaussian 16 at Thu Jun 16 14:05:38 2022.

 ------------------------------------------------------------------
 #N Geom=AllCheck Guess=TCheck SCRF=Check GenChk RB3LYP/ChkBas Freq
 ------------------------------------------------------------------

 Structure from the checkpoint file:  "/wrk/irikura/Gau-1806.chk"
 --------------------------------
 difluoromethylene, B3LYP/pcseg-2
 --------------------------------
 Charge =  0 Multiplicity = 1

                         Standard orientation:
 ---------------------------------------------------------------------
 Center     Atomic      Atomic             Coordinates (Angstroms)
 Number     Number       Type             X           Y           Z
 ---------------------------------------------------------------------
      1          6           0       -0.000000    0.000000    0.596789
      2          9           0        0.000000    1.032555   -0.198930
      3          9           0       -0.000000   -1.032555   -0.198930
 ---------------------------------------------------------------------

 SCF Done:  E(RB3LYP) =  -237.803990004     A.U. after    1 cycles

 The electronic state is 1-A1.
 Alpha  occ. eigenvalues --  -24.76481 -24.76480 -10.38859  -1.35010  -1.27484
 Alpha  occ. eigenvalues --   -0.72011  -0.61737  -0.57037  -0.56315  -0.49484
 Alpha  occ. eigenvalues --   -0.46811  -0.31910
 Alpha virt. eigenvalues --   -0.10018   0.08923   0.09031   0.15384   0.15676
 Alpha virt. eigenvalues --    0.26495   0.27386   0.38311   0.41461   0.45083
 Alpha virt. eigenvalues --    0.45234   0.47584   0.58064   0.75788   0.82552

 Mulliken charges:
               1
     1  C    0.290513
     2  F   -0.145256
     3  F   -0.145256
 Sum of Mulliken charges =  -0.00000

 Dipole moment (field-independent basis, Debye):
    X=              0.0000    Y=              0.0000    Z=             -0.6034  Tot=              0.6034
 Quadrupole moment (field-independent basis, Debye-Ang):
   XX=            -14.4839   YY=            -16.1251   ZZ=            -17.4301
   XY=             -0.0000   XZ=             -0.0000   YZ=              0.0000

  Exact polarizability:  13.005  -0.000  17.953   0.000   0.000  13.956
 Approx polarizability:  18.494   0.000  25.592   0.000   0.000  17.099

                      1                      2                      3
                     A1                     B2                     A1
 Frequencies --    669.8023              1103.8868              1225.9189
 Red. masses --     17.7960                13.6883                13.8104
 Frc consts  --      4.7040                 9.8276                12.2287
 IR Inten    --      3.3331               389.5607               120.5699

 - Thermochemistry -
 -------------------
 Temperature   298.150 Kelvin.  Pressure   1.00000 Atm.
 Atom     1 has atomic number  6 and mass  12.00000

 Molecular mass:    49.99681 amu.
 Principal axes and moments of inertia in atomic units:
                           1         2         3
     Eigenvalues --    20.62070 144.66745 165.28815
           X           -0.00000   0.00000   1.00000
           Y            1.00000   0.00000   0.00000
           Z           -0.00000   1.00000   0.00000
 This molecule is an asymmetric top.
 Rotational symmetry number  2.
 Rotational temperatures (Kelvin)      4.20034     0.59871     0.52402
 Rotational constants (GHZ):          87.52086    12.47510    10.91876
 Zero-point vibrational energy      17941.6 (Joules/Mol)
                                    4.28815 (Kcal/Mol)
 Vibrational temperatures:    963.70  1588.25  1763.82
          (Kelvin)

 Zero-point correction=                           0.006834 (Hartree/Particle)
 Thermal correction to Energy=                    0.009831
 Thermal correction to Enthalpy=                  0.010775
 Thermal correction to Gibbs Free Energy=        -0.016566
 Sum of electronic and zero-point Energies=           -237.797156
 Sum of electronic and thermal Energies=              -237.794159
 Sum of electronic and thermal Enthalpies=            -237.793215
 Sum of electronic and thermal Free Energies=         -237.820556

                     E (Thermal)             CV                S
                      KCal/Mol        Cal/Mol-Kelvin    Cal/Mol-Kelvin
 Total                    6.169              7.315             57.544
 Electronic               0.000              0.000              0.000
 Translational            0.889              2.981             37.652
 Rotational               0.889              2.981             19.450
 Vibrational              4.392              1.353              0.442

 Optimization completed.
    -- Stationary point found.
 Normal termination of Gaussian 16 at Thu Jun 16 14:05:47 2022.
