 Gaussian 16, Revision B.01,
 Gaussian 16:  ES64L-G16RevB.01 20-Dec-2017

 --------------------
 # b3lyp/gen opt freq
 --------------------

 --------------------------------------
 dichlorodifluoromethane, B3LYP/pcseg-2
 --------------------------------------
 Symbolic Z-matrix:
 Charge =  0 Multiplicity = 1

 SCF Done:  E(RB3LYP) =  -1158.35546564     A.U. after   11 cycles
 SCF Done:  E(RB3LYP) =  -1158.35563778     A.U. after    8 cycles
 SCF Done:  E(RB3LYP) =  -1158.35569106     A.U. after    8 cycles
 SCF Done:  E(RB3LYP) =  -1158.35569187     A.U. after    7 cycles
 Optimization completed.
    -- Stationary point found.
 Normal termination of Gaussian 16 at Thu Jun 16 09:05:33 2022.

 ------------------------------------------------------------------
 #N Geom=AllCheck Guess=TCheck SCRF=Check GenChk RB3LYP/ChkBas Freq
 ------------------------------------------------------------------

 Structure from the checkpoint file:  "/wrk/irikura/Gau-19754.chk"
 --------------------------------------
 dichlorodifluoromethane, B3LYP/pcseg-2
 --------------------------------------
 Charge =  0 Multiplicity = 1

                         Standard orientation:
 ---------------------------------------------------------------------
 Center     Atomic      Atomic             Coordinates (Angstroms)
 Number     Number       Type             X           Y           Z
 ---------------------------------------------------------------------
      1          6           0       -0.000000   -0.000000    0.340381
      2          9           0        0.000000    1.078867    1.125763
      3          9           0       -0.000000   -1.078867    1.125763
      4         17           0        1.471240   -0.000000   -0.656059
      5         17           0       -1.471240    0.000000   -0.656059
 ---------------------------------------------------------------------

 SCF Done:  E(RB3LYP) =  -1158.35569187     A.U. after    1 cycles

 The electronic state is 1-A1.
 Alpha  occ. eigenvalues -- -101.55226-101.55226 -24.74671 -24.74671 -10.47831
 Alpha  occ. eigenvalues --   -9.49792  -9.49791  -7.26007  -7.26007  -7.25027
 Alpha  occ. eigenvalues --   -7.25027  -7.25022  -7.25022  -1.33167  -1.26568
 Alpha  occ. eigenvalues --   -0.92411  -0.87108  -0.70617  -0.62255  -0.58668
 Alpha  occ. eigenvalues --   -0.58258  -0.49157  -0.47823  -0.46663  -0.41636
 Alpha  occ. eigenvalues --   -0.38178  -0.36829  -0.35213  -0.34061
 Alpha virt. eigenvalues --   -0.04626   0.00490   0.07118   0.08452   0.11699
 Alpha virt. eigenvalues --    0.13994   0.19802   0.20310   0.28192   0.29558
 Alpha virt. eigenvalues --    0.31316   0.31741   0.33442   0.33754   0.38386

 Mulliken charges:
               1
     1  C    0.524406
     2  F   -0.206011
     3  F   -0.206011
     4  Cl  -0.056192
     5  Cl  -0.056192
 Sum of Mulliken charges =   0.00000

 Dipole moment (field-independent basis, Debye):
    X=              0.0000    Y=             -0.0000    Z=             -0.4513  Tot=              0.4513
 Quadrupole moment (field-independent basis, Debye-Ang):
   XX=            -39.2126   YY=            -41.7486   ZZ=            -40.8657
   XY=              0.0000   XZ=             -0.0000   YZ=             -0.0000

  Exact polarizability:  46.816   0.000  28.516   0.000   0.000  34.483
 Approx polarizability:  67.462  -0.000  42.467   0.000  -0.000  52.412

                      1                      2                      3
                     A1                     A2                     B1
 Frequencies --    256.2059               317.1871               426.2533
 Red. masses --     27.4324                21.1861                25.7736
 Frc consts  --      1.0609                 1.2558                 2.7591
 IR Inten    --      0.0787                 0.0000                 0.7737

                      4                      5                      6
                     B2                     A1                     A1
 Frequencies --    431.4343               444.5065               660.1363
 Red. masses --     18.6030                25.7528                17.9931
 Frc consts  --      2.0402                 2.9980                 4.6198
 IR Inten    --      0.2029                 0.8222                14.5688

                      7                      8                      9
                     B1                     A1                     B2
 Frequencies --    866.3419              1084.1590              1142.4124
 Red. masses --     12.6863                13.6521                13.3722
 Frc consts  --      5.6100                 9.4544                10.2825
 IR Inten    --    417.0995               326.4919               241.3827

 - Thermochemistry -
 -------------------
 Temperature   298.150 Kelvin.  Pressure   1.00000 Atm.
 Atom     1 has atomic number  6 and mass  12.00000

 Molecular mass:   119.93451 amu.
 Principal axes and moments of inertia in atomic units:
                           1         2         3
     Eigenvalues --   442.33350 698.53604 824.99785
           X            1.00000   0.00000  -0.00000
           Y            0.00000   0.00000   1.00000
           Z            0.00000   1.00000  -0.00000
 This molecule is an asymmetric top.
 Rotational symmetry number  2.
 Warning -- assumption of classical behavior for rotation
           may cause significant error
 Rotational temperatures (Kelvin)      0.19581     0.12399     0.10499
 Rotational constants (GHZ):           4.08005     2.58360     2.18757
 Zero-point vibrational energy      33666.7 (Joules/Mol)
                                    8.04654 (Kcal/Mol)
 Warning -- explicit consideration of   5 degrees of freedom as
           vibrations may cause significant error
 Vibrational temperatures:    368.62   456.36   613.28   620.74   639.55
          (Kelvin)            949.79  1246.47  1559.86  1643.68

 Zero-point correction=                           0.012823 (Hartree/Particle)
 Thermal correction to Energy=                    0.017604
 Thermal correction to Enthalpy=                  0.018549
 Thermal correction to Gibbs Free Energy=        -0.015710
 Sum of electronic and zero-point Energies=          -1158.342869
 Sum of electronic and thermal Energies=             -1158.338088
 Sum of electronic and thermal Enthalpies=           -1158.337143
 Sum of electronic and thermal Free Energies=        -1158.371402

                     E (Thermal)             CV                S
                      KCal/Mol        Cal/Mol-Kelvin    Cal/Mol-Kelvin
 Total                   11.047             15.537             72.103
 Electronic               0.000              0.000              0.000
 Translational            0.889              2.981             40.260
 Rotational               0.889              2.981             25.658
 Vibrational              9.269              9.575              6.185
 Vibration     1          0.666              1.752              1.687
 Vibration     2          0.704              1.641              1.325
 Vibration     3          0.788              1.413              0.871
 Vibration     4          0.792              1.402              0.854
 Vibration     5          0.804              1.373              0.813

 Optimization completed.
    -- Stationary point found.
 Normal termination of Gaussian 16 at Thu Jun 16 09:05:51 2022.
