 Gaussian 16, Revision B.01,
 Gaussian 16:  ES64L-G16RevB.01 20-Dec-2017

 --------------------
 # b3lyp/gen opt freq
 --------------------

 ----------------------------------
 carbonyl difluoride, B3LYP/pcseg-2
 ----------------------------------
 Symbolic Z-matrix:
 Charge =  0 Multiplicity = 1

 SCF Done:  E(RB3LYP) =  -313.154727197     A.U. after   12 cycles
 SCF Done:  E(RB3LYP) =  -313.154814034     A.U. after    8 cycles
 SCF Done:  E(RB3LYP) =  -313.154828628     A.U. after    8 cycles
 Optimization completed.
    -- Stationary point found.
 Normal termination of Gaussian 16 at Wed Jun 15 11:38:39 2022.

 ------------------------------------------------------------------
 #N Geom=AllCheck Guess=TCheck SCRF=Check GenChk RB3LYP/ChkBas Freq
 ------------------------------------------------------------------

 Structure from the checkpoint file:  "/wrk/irikura/Gau-14621.chk"
 ----------------------------------
 carbonyl difluoride, B3LYP/pcseg-2
 ----------------------------------
 Charge =  0 Multiplicity = 1

                         Standard orientation:
 ---------------------------------------------------------------------
 Center     Atomic      Atomic             Coordinates (Angstroms)
 Number     Number       Type             X           Y           Z
 ---------------------------------------------------------------------
      1          8           0        0.000000    0.000000    1.315319
      2          6           0        0.000000    0.000000    0.145378
      3          9           0       -0.000000    1.065050   -0.633045
      4          9           0       -0.000000   -1.065050   -0.633045
 ---------------------------------------------------------------------

 SCF Done:  E(RB3LYP) =  -313.154828628     A.U. after    1 cycles

 The electronic state is 1-A1.
 Alpha  occ. eigenvalues --  -24.76274 -24.76273 -19.18425 -10.44738  -1.34920
 Alpha  occ. eigenvalues --   -1.27878  -1.12997  -0.70878  -0.63986  -0.59243
 Alpha  occ. eigenvalues --   -0.56238  -0.49711  -0.49226  -0.47683  -0.41942
 Alpha  occ. eigenvalues --   -0.37521
 Alpha virt. eigenvalues --   -0.03404   0.02005   0.13211   0.13283   0.13331
 Alpha virt. eigenvalues --    0.20120   0.23451   0.31665   0.37867   0.38830
 Alpha virt. eigenvalues --    0.39257   0.44454   0.49646   0.51659   0.55125

 Mulliken charges:
               1
     1  O   -0.297075
     2  C    0.717478
     3  F   -0.210202
     4  F   -0.210202
 Sum of Mulliken charges =  -0.00000

 Dipole moment (field-independent basis, Debye):
    X=              0.0000    Y=              0.0000    Z=             -1.0464  Tot=              1.0464
 Quadrupole moment (field-independent basis, Debye-Ang):
   XX=            -18.8833   YY=            -21.3892   ZZ=            -23.3849
   XY=             -0.0000   XZ=             -0.0000   YZ=              0.0000

  Exact polarizability:  11.286   0.000  16.676  -0.000  -0.000  21.049
 Approx polarizability:  14.948   0.000  21.762   0.000  -0.000  32.177

                      1                      2                      3
                     A1                     B2                     B1
 Frequencies --    577.9165               617.2499               777.2570
 Red. masses --     17.6893                17.0650                12.7422
 Frc consts  --      3.4809                 3.8307                 4.5355
 IR Inten    --      5.4960                 6.3680                38.4368

                      4                      5                      6
                     A1                     B2                     A1
 Frequencies --    964.9144              1220.7516              1963.7174
 Red. masses --     17.1966                13.1761                13.1876
 Frc consts  --      9.4334                11.5689                29.9621
 IR Inten    --     63.2418               449.1863               494.1802

 - Thermochemistry -
 -------------------
 Temperature   298.150 Kelvin.  Pressure   1.00000 Atm.
 Atom     1 has atomic number  8 and mass  15.99491

 Molecular mass:    65.99172 amu.
 Principal axes and moments of inertia in atomic units:
                           1         2         3
     Eigenvalues --   153.91644 154.01446 307.93089
           X            0.00000   0.00000   1.00000
           Y            0.00000   1.00000   0.00000
           Z            1.00000   0.00000   0.00000
 This molecule is an asymmetric top.
 Rotational symmetry number  2.
 Rotational temperatures (Kelvin)      0.56273     0.56238     0.28128
 Rotational constants (GHZ):          11.72546    11.71800     5.86086
 Zero-point vibrational energy      36616.5 (Joules/Mol)
                                    8.75156 (Kcal/Mol)
 Warning -- explicit consideration of   2 degrees of freedom as
           vibrations may cause significant error
 Vibrational temperatures:    831.49   888.08  1118.30  1388.30  1756.39
          (Kelvin)           2825.35

 Zero-point correction=                           0.013947 (Hartree/Particle)
 Thermal correction to Energy=                    0.017246
 Thermal correction to Enthalpy=                  0.018190
 Thermal correction to Gibbs Free Energy=        -0.011216
 Sum of electronic and zero-point Energies=           -313.140882
 Sum of electronic and thermal Energies=              -313.137583
 Sum of electronic and thermal Enthalpies=            -313.136639
 Sum of electronic and thermal Free Energies=         -313.166045

                     E (Thermal)             CV                S
                      KCal/Mol        Cal/Mol-Kelvin    Cal/Mol-Kelvin
 Total                   10.822              9.348             61.891
 Electronic               0.000              0.000              0.000
 Translational            0.889              2.981             38.479
 Rotational               0.889              2.981             22.128
 Vibrational              9.044              3.386              1.284
 Vibration     1          0.934              1.079              0.489
 Vibration     2          0.977              0.995              0.421

 Optimization completed.
    -- Stationary point found.
 Normal termination of Gaussian 16 at Wed Jun 15 11:38:50 2022.
