 Gaussian 16, Revision B.01,
 Gaussian 16:  ES64L-G16RevB.01 20-Dec-2017

 --------------------
 # b3lyp/gen opt freq
 --------------------

 ------------------
 CF3, B3LYP/pcseg-2
 ------------------
 Symbolic Z-matrix:
 Charge =  0 Multiplicity = 2

 SCF Done:  E(UB3LYP) =  -337.710523119     A.U. after   12 cycles
 SCF Done:  E(UB3LYP) =  -337.711555222     A.U. after   10 cycles
 SCF Done:  E(UB3LYP) =  -337.712843476     A.U. after   10 cycles
 SCF Done:  E(UB3LYP) =  -337.712845730     A.U. after    6 cycles
 Optimization completed.
    -- Stationary point found.
 Normal termination of Gaussian 16 at Wed Jun 15 10:52:25 2022.

 ------------------------------------------------------------------
 #N Geom=AllCheck Guess=TCheck SCRF=Check GenChk UB3LYP/ChkBas Freq
 ------------------------------------------------------------------

 Structure from the checkpoint file:  "/wrk/irikura/Gau-4704.chk"
 ------------------
 CF3, B3LYP/pcseg-2
 ------------------
 Charge =  0 Multiplicity = 2

                         Standard orientation:
 ---------------------------------------------------------------------
 Center     Atomic      Atomic             Coordinates (Angstroms)
 Number     Number       Type             X           Y           Z
 ---------------------------------------------------------------------
      1          6           0        0.000000    0.000000    0.325007
      2          9           0        0.000000    1.260054   -0.072224
      3          9           0        1.091239   -0.630027   -0.072224
      4          9           0       -1.091239   -0.630027   -0.072224
 ---------------------------------------------------------------------

 SCF Done:  E(UB3LYP) =  -337.712845730     A.U. after    1 cycles

 The electronic state is 2-A1.
 Alpha  occ. eigenvalues --  -24.75040 -24.75040 -24.75039 -10.44618  -1.35477
 Alpha  occ. eigenvalues --   -1.27148  -1.27148  -0.73198  -0.63266  -0.63266
 Alpha  occ. eigenvalues --   -0.59786  -0.50949  -0.50949  -0.47819  -0.47819
 Alpha  occ. eigenvalues --   -0.45254  -0.28578
 Alpha virt. eigenvalues --    0.08459   0.10406   0.10406   0.13338   0.20794
 Alpha virt. eigenvalues --    0.23154   0.23154   0.39177   0.39177   0.40978
 Alpha virt. eigenvalues --    0.43668   0.43668   0.52681   0.56010   0.60146

  Beta  occ. eigenvalues --  -24.74661 -24.74661 -24.74660 -10.42943  -1.34543
  Beta  occ. eigenvalues --   -1.26324  -1.26324  -0.71629  -0.62389  -0.62389
  Beta  occ. eigenvalues --   -0.56187  -0.50013  -0.50013  -0.46910  -0.46910
  Beta  occ. eigenvalues --   -0.44947
  Beta virt. eigenvalues --   -0.11301   0.09289   0.11388   0.11388   0.15364
  Beta virt. eigenvalues --    0.22014   0.25200   0.25200   0.39550   0.39550
  Beta virt. eigenvalues --    0.41208   0.43889   0.43889   0.53277   0.56027

 Mulliken charges and spin densities:
               1          2
     1  C    0.624534   0.852374
     2  F   -0.208178   0.049209
     3  F   -0.208178   0.049209
     4  F   -0.208178   0.049209
 Sum of Mulliken charges =   0.00000   1.00000

 Dipole moment (field-independent basis, Debye):
    X=              0.0000    Y=             -0.0000    Z=              0.2980  Tot=              0.2980
 Quadrupole moment (field-independent basis, Debye-Ang):
   XX=            -21.1870   YY=            -21.1870   ZZ=            -19.7118
   XY=             -0.0000   XZ=             -0.0000   YZ=             -0.0000

  Exact polarizability:  16.994   0.000  16.994   0.000   0.000  12.888
 Approx polarizability:  21.735  -0.000  21.735   0.000  -0.000  15.504

                      1                      2                      3
                      E                      E                     A1
 Frequencies --    503.9330               503.9330               696.3415
 Red. masses --     18.2868                18.2868                16.3193
 Frc consts  --      2.7361                 2.7361                 4.6623
 IR Inten    --      1.3213                 1.3211                12.9603

                      4                      5                      6
                     A1                      E                      E
 Frequencies --   1077.0729              1235.4131              1235.4239
 Red. masses --     14.4190                13.3158                13.3158
 Frc consts  --      9.8554                11.9741                11.9743
 IR Inten    --     40.4632               374.1122               374.1011

 - Thermochemistry -
 -------------------
 Temperature   298.150 Kelvin.  Pressure   1.00000 Atm.
 Atom     1 has atomic number  6 and mass  12.00000

 Molecular mass:    68.99521 amu.
 Principal axes and moments of inertia in atomic units:
                           1         2         3
     Eigenvalues --   167.16456 167.16456 323.15758
           X           -0.44721   0.89443   0.00000
           Y            0.89443   0.44721   0.00000
           Z           -0.00000  -0.00000   1.00000
 This molecule is an oblate symmetric top.
 Rotational symmetry number  3.
 Rotational temperatures (Kelvin)      0.51814     0.51814     0.26802
 Rotational constants (GHZ):          10.79620    10.79620     5.58471
 Zero-point vibrational energy      31414.6 (Joules/Mol)
                                    7.50828 (Kcal/Mol)
 Warning -- explicit consideration of   2 degrees of freedom as
           vibrations may cause significant error
 Vibrational temperatures:    725.05   725.05  1001.88  1549.67  1777.48
          (Kelvin)           1777.50

 Zero-point correction=                           0.011965 (Hartree/Particle)
 Thermal correction to Energy=                    0.015411
 Thermal correction to Enthalpy=                  0.016355
 Thermal correction to Gibbs Free Energy=        -0.013707
 Sum of electronic and zero-point Energies=           -337.700881
 Sum of electronic and thermal Energies=              -337.697435
 Sum of electronic and thermal Enthalpies=            -337.696491
 Sum of electronic and thermal Free Energies=         -337.726552

                     E (Thermal)             CV                S
                      KCal/Mol        Cal/Mol-Kelvin    Cal/Mol-Kelvin
 Total                    9.670              9.946             63.270
 Electronic               0.000              0.000              1.377
 Translational            0.889              2.981             38.612
 Rotational               0.889              2.981             21.533
 Vibrational              7.893              3.985              1.747
 Vibration     1          0.859              1.241              0.648
 Vibration     2          0.859              1.241              0.648

 Optimization completed.
    -- Stationary point found.
 Normal termination of Gaussian 16 at Wed Jun 15 10:52:48 2022.
