 Gaussian 16, Revision B.01,

 ---------------------------------------
 # b3lyp/gen opt freq CPHF(Grid=OneStep)
 ---------------------------------------

 ------------------
 CF3, B3LYP/pcseg-2
 ------------------
 Symbolic Z-matrix:
 Charge =  0 Multiplicity = 2

 SCF Done:  E(UB3LYP) =  -337.712845730     A.U. after   12 cycles
 Optimization completed.
    -- Stationary point found.
 Normal termination of Gaussian 16 at Fri Sep 29 19:00:08 2023.

 ------------------------------------------------------------------
 #N Geom=AllCheck Guess=TCheck SCRF=Check GenChk UB3LYP/ChkBas Freq
 ------------------------------------------------------------------

 Structure from the checkpoint file:  "cf3.chk"
 ------------------
 CF3, B3LYP/pcseg-2
 ------------------
 Charge =  0 Multiplicity = 2

 SCF Done:  E(UB3LYP) =  -337.712845730     A.U. after    1 cycles

  Exact polarizability:  16.994  -0.000  16.994  -0.000  -0.000  12.888
 Approx polarizability:  21.735  -0.000  21.735   0.000   0.000  15.504

                      1                      2                      3
                      E                      E                     A1
 Frequencies --    503.9324               503.9328               696.3426
 Red. masses --     18.2868                18.2868                16.3194
 Frc consts  --      2.7361                 2.7361                 4.6623
 IR Inten    --      1.3207                 1.3207                12.9591

                      4                      5                      6
                     A1                      E                      E
 Frequencies --   1077.0702              1235.4204              1235.4219
 Red. masses --     14.4189                13.3158                13.3158
 Frc consts  --      9.8553                11.9742                11.9742
 IR Inten    --     40.4615               374.1113               374.1213

 - Thermochemistry -
 -------------------
 Temperature   298.150 Kelvin.  Pressure   1.00000 Atm.
 Atom     1 has atomic number  6 and mass  12.00000

 Molecular mass:    68.99521 amu.
 Principal axes and moments of inertia in atomic units:
                           1         2         3
     Eigenvalues --   167.16460 167.16460 323.15762
           X           -0.36508   0.93098   0.00000
           Y            0.93098   0.36508   0.00000
           Z            0.00000   0.00000   1.00000
 This molecule is an oblate symmetric top.
 Rotational symmetry number  3.
 Rotational temperatures (Kelvin)      0.51814     0.51814     0.26802
 Rotational constants (GHZ):          10.79619    10.79619     5.58471
 Zero-point vibrational energy      31414.7 (Joules/Mol)
                                    7.50828 (Kcal/Mol)
 Warning -- explicit consideration of   2 degrees of freedom as
           vibrations may cause significant error
 Vibrational temperatures:    725.05   725.05  1001.88  1549.66  1777.49
          (Kelvin)           1777.50

 Zero-point correction=                           0.011965 (Hartree/Particle)
 Thermal correction to Energy=                    0.015411
 Thermal correction to Enthalpy=                  0.016355
 Thermal correction to Gibbs Free Energy=        -0.013707
 Sum of electronic and zero-point Energies=           -337.700881
 Sum of electronic and thermal Energies=              -337.697435
 Sum of electronic and thermal Enthalpies=            -337.696491
 Sum of electronic and thermal Free Energies=         -337.726552

                     E (Thermal)             CV                S
                      KCal/Mol        Cal/Mol-Kelvin    Cal/Mol-Kelvin
 Total                    9.670              9.946             63.270
 Electronic               0.000              0.000              1.377
 Translational            0.889              2.981             38.612
 Rotational               0.889              2.981             21.533
 Vibrational              7.893              3.985              1.747
 Vibration     1          0.859              1.241              0.648
 Vibration     2          0.859              1.241              0.648

 Optimization completed.
    -- Stationary point found.
 Normal termination of Gaussian 16 at Fri Sep 29 19:01:01 2023.
 Gaussian 16:  ES64L-G16RevB.01 20-Dec-2017

 ---------------------------------
 # rohf/gen geom=check guess=check
 ---------------------------------

 ---------------------
 CF3, ROHF/cc-pVTZ-F12
 ---------------------
 Structure from the checkpoint file:  "cf3.chk"
 Charge =  0 Multiplicity = 2

                         Standard orientation:
 ---------------------------------------------------------------------
 Center     Atomic      Atomic             Coordinates (Angstroms)
 Number     Number       Type             X           Y           Z
 ---------------------------------------------------------------------
      1          6           0        0.000000    0.000000    0.325007
      2          9           0        0.000000    1.260054   -0.072224
      3          9           0        1.091239   -0.630027   -0.072224
      4          9           0       -1.091239   -0.630027   -0.072224
 ---------------------------------------------------------------------

 SCF Done:  E(ROHF) =  -336.288933733     A.U. after   13 cycles

 The electronic state is 2-A1.
 Alpha  occ. eigenvalues --  -26.36471 -26.36471 -26.36468 -11.50871  -1.74963
 Alpha  occ. eigenvalues --   -1.66127  -1.66127  -0.96686  -0.84512  -0.84512
 Alpha  occ. eigenvalues --   -0.79376  -0.72407  -0.72407  -0.69201  -0.69201
 Alpha  occ. eigenvalues --   -0.67561  -0.12463
 Alpha virt. eigenvalues --    0.06545   0.07019   0.07103   0.07103   0.17068
 Alpha virt. eigenvalues --    0.17068   0.20041   0.20041   0.20303   0.24055
 Alpha virt. eigenvalues --    0.24569   0.24569   0.26004   0.28829   0.35665

 Mulliken charges and spin densities:
               1          2
     1  C    0.886598   0.940485
     2  F   -0.295533   0.019838
     3  F   -0.295533   0.019838
     4  F   -0.295533   0.019838
 Sum of Mulliken charges =  -0.00000   1.00000

 Dipole moment (field-independent basis, Debye):
    X=              0.0000    Y=             -0.0000    Z=              0.6429  Tot=              0.6429
 Quadrupole moment (field-independent basis, Debye-Ang):
   XX=            -21.1756   YY=            -21.1756   ZZ=            -19.1226
   XY=             -0.0000   XZ=             -0.0000   YZ=              0.0000

 Normal termination of Gaussian 16 at Fri Sep 29 19:01:16 2023.
