 Gaussian 16, Revision B.01,
 Gaussian 16:  ES64L-G16RevB.01 20-Dec-2017

 --------------------
 # b3lyp/gen opt freq
 --------------------

 --------------------
 CF3Cl, B3LYP/pcseg-2
 --------------------
 Symbolic Z-matrix:
 Charge =  0 Multiplicity = 1

 SCF Done:  E(RB3LYP) =  -798.011238330     A.U. after   11 cycles
 SCF Done:  E(RB3LYP) =  -798.017831787     A.U. after   11 cycles
 SCF Done:  E(RB3LYP) =  -798.018025613     A.U. after    9 cycles
 SCF Done:  E(RB3LYP) =  -798.018040724     A.U. after    7 cycles
 Optimization completed.
    -- Stationary point found.
 Normal termination of Gaussian 16 at Wed Jun 15 15:17:40 2022.

 ------------------------------------------------------------------
 #N Geom=AllCheck Guess=TCheck SCRF=Check GenChk RB3LYP/ChkBas Freq
 ------------------------------------------------------------------

 Structure from the checkpoint file:  "/wrk/irikura/Gau-8858.chk"
 --------------------
 CF3Cl, B3LYP/pcseg-2
 --------------------
 Charge =  0 Multiplicity = 1

                         Standard orientation:
 ---------------------------------------------------------------------
 Center     Atomic      Atomic             Coordinates (Angstroms)
 Number     Number       Type             X           Y           Z
 ---------------------------------------------------------------------
      1          6           0        0.000000    0.000000   -0.353120
      2         17           0        0.000000    0.000000    1.418259
      3          9           0        0.000000    1.247889   -0.814507
      4          9           0        1.080704   -0.623945   -0.814507
      5          9           0       -1.080704   -0.623945   -0.814507
 ---------------------------------------------------------------------

 SCF Done:  E(RB3LYP) =  -798.018040724     A.U. after    1 cycles

 The electronic state is 1-A1.
 Alpha  occ. eigenvalues -- -101.55419 -24.74847 -24.74847 -24.74847 -10.50487
 Alpha  occ. eigenvalues --   -9.49998  -7.26206  -7.25233  -7.25233  -1.36229
 Alpha  occ. eigenvalues --   -1.27097  -1.27097  -0.90282  -0.72832  -0.64051
 Alpha  occ. eigenvalues --   -0.64051  -0.60471  -0.51165  -0.51165  -0.47776
 Alpha  occ. eigenvalues --   -0.47776  -0.45204  -0.43759  -0.36228  -0.36228
 Alpha virt. eigenvalues --   -0.01975   0.08332   0.09620   0.09620   0.13006
 Alpha virt. eigenvalues --    0.19089   0.19089   0.20563   0.30302   0.32454
 Alpha virt. eigenvalues --    0.32454   0.37935   0.37935   0.41545   0.41545

 Mulliken charges:
               1
     1  C    0.709988
     2  Cl  -0.067771
     3  F   -0.214072
     4  F   -0.214072
     5  F   -0.214072
 Sum of Mulliken charges =  -0.00000

 Dipole moment (field-independent basis, Debye):
    X=             -0.0000    Y=              0.0000    Z=              0.4103  Tot=              0.4103
 Quadrupole moment (field-independent basis, Debye-Ang):
   XX=            -33.7717   YY=            -33.7717   ZZ=            -32.1267
   XY=              0.0000   XZ=              0.0000   YZ=             -0.0000

  Exact polarizability:  22.885  -0.000  22.885  -0.000   0.000  33.274
 Approx polarizability:  31.988  -0.000  31.988   0.000  -0.000  47.347

                      1                      2                      3
                      E                      E                     A1
 Frequencies --    342.0500               342.0509               460.5229
 Red. masses --     20.3411                20.3411                26.3039
 Frc consts  --      1.4022                 1.4022                 3.2868
 IR Inten    --      0.0113                 0.0113                 0.8177

                      4                      5                      6
                      E                      E                     A1
 Frequencies --    555.1395               555.1403               773.6719
 Red. masses --     18.2073                18.2072                17.5773
 Frc consts  --      3.3060                 3.3060                 6.1989
 IR Inten    --      1.4424                 1.4426                40.8201

                      7                      8                      9
                     A1                      E                      E
 Frequencies --   1075.3866              1189.4503              1189.4662
 Red. masses --     13.4771                13.1786                13.1786
 Frc consts  --      9.1828                10.9853                10.9856
 IR Inten    --    495.3671               323.0374               323.0495

 - Thermochemistry -
 -------------------
 Temperature   298.150 Kelvin.  Pressure   1.00000 Atm.
 Atom     1 has atomic number  6 and mass  12.00000

 Molecular mass:   103.96406 amu.
 Principal axes and moments of inertia in atomic units:
                           1         2         3
     Eigenvalues --   316.94811 549.98996 549.98996
           X            0.00000   0.21141   0.97740
           Y            0.00000   0.97740  -0.21141
           Z            1.00000  -0.00000  -0.00000
 This molecule is a prolate symmetric top.
 Rotational symmetry number  3.
 Rotational temperatures (Kelvin)      0.27327     0.15748     0.15748
 Rotational constants (GHZ):           5.69412     3.28141     3.28141
 Zero-point vibrational energy      38776.2 (Joules/Mol)
                                    9.26774 (Kcal/Mol)
 Warning -- explicit consideration of   5 degrees of freedom as
           vibrations may cause significant error
 Vibrational temperatures:    492.13   492.13   662.59   798.72   798.72
          (Kelvin)           1113.14  1547.24  1711.35  1711.38

 Zero-point correction=                           0.014769 (Hartree/Particle)
 Thermal correction to Energy=                    0.019119
 Thermal correction to Enthalpy=                  0.020063
 Thermal correction to Gibbs Free Energy=        -0.012406
 Sum of electronic and zero-point Energies=           -798.003272
 Sum of electronic and thermal Energies=              -797.998922
 Sum of electronic and thermal Enthalpies=            -797.997978
 Sum of electronic and thermal Free Energies=         -798.030447

                     E (Thermal)             CV                S
                      KCal/Mol        Cal/Mol-Kelvin    Cal/Mol-Kelvin
 Total                   11.997             14.159             68.337
 Electronic               0.000              0.000              0.000
 Translational            0.889              2.981             39.834
 Rotational               0.889              2.981             23.881
 Vibrational             10.220              8.198              4.622
 Vibration     1          0.721              1.591              1.203
 Vibration     2          0.721              1.591              1.203
 Vibration     3          0.818              1.338              0.765
 Vibration     4          0.911              1.128              0.534
 Vibration     5          0.911              1.128              0.534

 Optimization completed.
    -- Stationary point found.
 Normal termination of Gaussian 16 at Wed Jun 15 15:18:05 2022.
