 Gaussian 16, Revision B.01,
 Gaussian 16:  ES64L-G16RevB.01 20-Dec-2017

 --------------------
 # b3lyp/gen opt freq
 --------------------

 ------------------
 CF4, B3LYP/pcseg-2
 ------------------
 Symbolic Z-matrix:
 Charge =  0 Multiplicity = 1

 SCF Done:  E(RB3LYP) =  -437.662331710     A.U. after   10 cycles
 SCF Done:  E(RB3LYP) =  -437.681567277     A.U. after   10 cycles
 SCF Done:  E(RB3LYP) =  -437.681669520     A.U. after    6 cycles
 Optimization completed.
    -- Stationary point found.
 Normal termination of Gaussian 16 at Wed Feb  2 17:54:50 2022.

 ------------------------------------------------------------------
 #N Geom=AllCheck Guess=TCheck SCRF=Check GenChk RB3LYP/ChkBas Freq
 ------------------------------------------------------------------

 Structure from the checkpoint file:  "/wrk/irikura/Gau-15507.chk"
 ------------------
 CF4, B3LYP/pcseg-2
 ------------------
 Charge =  0 Multiplicity = 1

                         Standard orientation:
 ---------------------------------------------------------------------
 Center     Atomic      Atomic             Coordinates (Angstroms)
 Number     Number       Type             X           Y           Z
 ---------------------------------------------------------------------
      1          6           0        0.000000    0.000000    0.000000
      2          9           0        0.765608    0.765608    0.765608
      3          9           0       -0.765608   -0.765608    0.765608
      4          9           0       -0.765608    0.765608   -0.765608
      5          9           0        0.765608   -0.765608   -0.765608
 ---------------------------------------------------------------------

 SCF Done:  E(RB3LYP) =  -437.681669520     A.U. after    1 cycles

 The electronic state is 1-A1.
 Alpha  occ. eigenvalues --  -24.75073 -24.75073 -24.75073 -24.75072 -10.53166
 Alpha  occ. eigenvalues --   -1.39071  -1.27709  -1.27709  -1.27709  -0.74923
 Alpha  occ. eigenvalues --   -0.65749  -0.65749  -0.65749  -0.52405  -0.52405
 Alpha  occ. eigenvalues --   -0.49845  -0.49845  -0.49845  -0.45538  -0.45538
 Alpha  occ. eigenvalues --   -0.45538
 Alpha virt. eigenvalues --    0.07063   0.12135   0.12135   0.12135   0.18905
 Alpha virt. eigenvalues --    0.18905   0.18905   0.20561   0.39169   0.39169
 Alpha virt. eigenvalues --    0.39169   0.42160   0.42160   0.43213   0.55570

 Mulliken charges:
               1
     1  C    0.889819
     2  F   -0.222455
     3  F   -0.222455
     4  F   -0.222455
     5  F   -0.222455
 Sum of Mulliken charges =   0.00000

 Dipole moment (field-independent basis, Debye):
    X=              0.0000    Y=             -0.0000    Z=             -0.0000  Tot=              0.0000
 Quadrupole moment (field-independent basis, Debye-Ang):
   XX=            -25.7747   YY=            -25.7747   ZZ=            -25.7747
   XY=             -0.0000   XZ=              0.0000   YZ=              0.0000

  Exact polarizability:  16.733  -0.000  16.733  -0.000  -0.000  16.733
 Approx polarizability:  21.301   0.000  21.301  -0.000   0.000  21.301

                      1                      2                      3
                      E                      E                     T2
 Frequencies --    428.0803               428.0803               621.3718
 Red. masses --     18.9984                18.9984                18.2284
 Frc consts  --      2.0512                 2.0512                 4.1467
 IR Inten    --      0.0000                 0.0000                 3.4183

                      4                      5                      6
                     T2                     T2                     A1
 Frequencies --    621.3718               621.3718               900.7422
 Red. masses --     18.2284                18.2284                18.9984
 Frc consts  --      4.1467                 4.1467                 9.0817
 IR Inten    --      3.4183                 3.4183                 0.0000

                      7                      8                      9
                     T2                     T2                     T2
 Frequencies --   1246.7602              1246.7602              1246.7602
 Red. masses --     12.9999                12.9999                12.9999
 Frc consts  --     11.9057                11.9057                11.9057
 IR Inten    --    434.9186               434.9186               434.9186

 - Thermochemistry -
 -------------------
 Temperature   298.150 Kelvin.  Pressure   1.00000 Atm.
 Atom     1 has atomic number  6 and mass  12.00000

 Molecular mass:    87.99361 amu.
 Principal axes and moments of inertia in atomic units:
                           1         2         3
     Eigenvalues --   318.13925 318.13925 318.13925
           X            0.28735   0.89710   0.33563
           Y            0.95783  -0.26913  -0.10069
           Z            0.00000  -0.35040   0.93660
 This molecule is a spherical top.
 Rotational symmetry number 12.
 Rotational temperatures (Kelvin)      0.27225     0.27225     0.27225
 Rotational constants (GHZ):           5.67280     5.67280     5.67280
 Zero-point vibrational energy      44030.3 (Joules/Mol)
                                   10.52350 (Kcal/Mol)
 Warning -- explicit consideration of   2 degrees of freedom as
           vibrations may cause significant error
 Vibrational temperatures:    615.91   615.91   894.02   894.02   894.02
          (Kelvin)           1295.97  1793.81  1793.81  1793.81

 Zero-point correction=                           0.016770 (Hartree/Particle)
 Thermal correction to Energy=                    0.020710
 Thermal correction to Enthalpy=                  0.021654
 Thermal correction to Gibbs Free Energy=        -0.008086
 Sum of electronic and zero-point Energies=           -437.664899
 Sum of electronic and thermal Energies=              -437.660959
 Sum of electronic and thermal Enthalpies=            -437.660015
 Sum of electronic and thermal Free Energies=         -437.689755

                     E (Thermal)             CV                S
                      KCal/Mol        Cal/Mol-Kelvin    Cal/Mol-Kelvin
 Total                   12.996             12.768             62.593
 Electronic               0.000              0.000              0.000
 Translational            0.889              2.981             39.337
 Rotational               0.889              2.981             20.042
 Vibrational             11.218              6.806              3.214
 Vibration     1          0.790              1.409              0.865
 Vibration     2          0.790              1.409              0.865

 Optimization completed.
    -- Stationary point found.
 Normal termination of Gaussian 16 at Wed Feb  2 17:56:28 2022.
