 Gaussian 16, Revision B.01,
 Gaussian 16:  ES64L-G16RevB.01 20-Dec-2017

 --------------------
 # b3lyp/gen opt freq
 --------------------

 -------------------------------------
 trichlorofluoromethane, B3LYP/pcseg-2
 -------------------------------------
 Symbolic Z-matrix:
 Charge =  0 Multiplicity = 1

 SCF Done:  E(RB3LYP) =  -1518.69516101     A.U. after   12 cycles
 SCF Done:  E(RB3LYP) =  -1518.69523983     A.U. after    8 cycles
 SCF Done:  E(RB3LYP) =  -1518.69524592     A.U. after    8 cycles
 SCF Done:  E(RB3LYP) =  -1518.69524728     A.U. after    7 cycles
 Optimization completed.
    -- Stationary point found.
 Normal termination of Gaussian 16 at Thu Jun 16 12:02:18 2022.

 ------------------------------------------------------------------
 #N Geom=AllCheck Guess=TCheck SCRF=Check GenChk RB3LYP/ChkBas Freq
 ------------------------------------------------------------------

 Structure from the checkpoint file:  "/wrk/irikura/Gau-22320.chk"
 -------------------------------------
 trichlorofluoromethane, B3LYP/pcseg-2
 -------------------------------------
 Charge =  0 Multiplicity = 1

                         Standard orientation:
 ---------------------------------------------------------------------
 Center     Atomic      Atomic             Coordinates (Angstroms)
 Number     Number       Type             X           Y           Z
 ---------------------------------------------------------------------
      1          6           0        0.000000    0.000000    0.250640
      2          9           0        0.000000    0.000000    1.590662
      3         17           0       -0.000000    1.689253   -0.310192
      4         17           0        1.462936   -0.844626   -0.310192
      5         17           0       -1.462936   -0.844626   -0.310192
 ---------------------------------------------------------------------

 SCF Done:  E(RB3LYP) =  -1518.69524728     A.U. after    1 cycles

 The electronic state is 1-A1.
 Alpha  occ. eigenvalues -- -101.55106-101.55106-101.55106 -24.74413 -10.45098
 Alpha  occ. eigenvalues --   -9.49655  -9.49655  -9.49654  -7.25882  -7.25882
 Alpha  occ. eigenvalues --   -7.25882  -7.24887  -7.24887  -7.24887  -7.24877
 Alpha  occ. eigenvalues --   -7.24877  -7.24877  -1.29581  -0.95063  -0.86600
 Alpha  occ. eigenvalues --   -0.86600  -0.67926  -0.56843  -0.55609  -0.55609
 Alpha  occ. eigenvalues --   -0.44254  -0.44254  -0.38250  -0.37203  -0.37203
 Alpha  occ. eigenvalues --   -0.34317  -0.34317  -0.32934
 Alpha virt. eigenvalues --   -0.06305  -0.00694  -0.00694   0.06348   0.10919
 Alpha virt. eigenvalues --    0.15220   0.15220   0.21076   0.25869   0.25869
 Alpha virt. eigenvalues --    0.31088   0.31088   0.31567   0.33061   0.33061

 Mulliken charges:
               1
     1  C    0.330480
     2  F   -0.200397
     3  Cl  -0.043361
     4  Cl  -0.043361
     5  Cl  -0.043361
 Sum of Mulliken charges =  -0.00000

 Dipole moment (field-independent basis, Debye):
    X=              0.0000    Y=             -0.0000    Z=             -0.3984  Tot=              0.3984
 Quadrupole moment (field-independent basis, Debye-Ang):
   XX=            -47.2566   YY=            -47.2566   ZZ=            -49.3617
   XY=             -0.0000   XZ=              0.0000   YZ=              0.0000

  Exact polarizability:  52.478   0.000  52.478  -0.000   0.000  36.264
 Approx polarizability:  79.001   0.000  79.001   0.000  -0.000  57.529

                      1                      2                      3
                      E                      E                     A1
 Frequencies --    240.0157               240.0167               344.6675
 Red. masses --     30.0156                30.0155                25.9932
 Frc consts  --      1.0188                 1.0188                 1.8193
 IR Inten    --      0.0642                 0.0643                 0.2553

                      4                      5                      6
                      E                      E                     A1
 Frequencies --    392.1015               392.1015               522.8660
 Red. masses --     25.4192                25.4190                22.1941
 Frc consts  --      2.3025                 2.3025                 3.5749
 IR Inten    --      0.4653                 0.4652                 2.8726

                      7                      8                      9
                      E                      E                     A1
 Frequencies --    799.6667               799.6738              1075.6244
 Red. masses --     12.8170                12.8170                13.7279
 Frc consts  --      4.8290                 4.8290                 9.3579
 IR Inten    --    283.3733               283.3641               213.0458

 - Thermochemistry -
 -------------------
 Temperature   298.150 Kelvin.  Pressure   1.00000 Atm.
 Atom     1 has atomic number  6 and mass  12.00000

 Molecular mass:   135.90496 amu.
 Principal axes and moments of inertia in atomic units:
                           1         2         3
     Eigenvalues --   744.90117 744.901171069.02920
           X           -0.37139   0.92848   0.00000
           Y            0.92848   0.37139   0.00000
           Z           -0.00000  -0.00000   1.00000
 This molecule is an oblate symmetric top.
 Rotational symmetry number  3.
 Warning -- assumption of classical behavior for rotation
           may cause significant error
 Rotational temperatures (Kelvin)      0.11628     0.11628     0.08102
 Rotational constants (GHZ):           2.42279     2.42279     1.68821
 Zero-point vibrational energy      28750.7 (Joules/Mol)
                                    6.87157 (Kcal/Mol)
 Warning -- explicit consideration of   6 degrees of freedom as
           vibrations may cause significant error
 Vibrational temperatures:    345.33   345.33   495.90   564.15   564.15
          (Kelvin)            752.29  1150.54  1150.55  1547.58

 Zero-point correction=                           0.010951 (Hartree/Particle)
 Thermal correction to Energy=                    0.016178
 Thermal correction to Enthalpy=                  0.017122
 Thermal correction to Gibbs Free Energy=        -0.018129
 Sum of electronic and zero-point Energies=          -1518.684297
 Sum of electronic and thermal Energies=             -1518.679069
 Sum of electronic and thermal Enthalpies=           -1518.678125
 Sum of electronic and thermal Free Energies=        -1518.713376

                     E (Thermal)             CV                S
                      KCal/Mol        Cal/Mol-Kelvin    Cal/Mol-Kelvin
 Total                   10.152             16.884             74.192
 Electronic               0.000              0.000              0.000
 Translational            0.889              2.981             40.632
 Rotational               0.889              2.981             25.691
 Vibrational              8.374             10.922              7.868
 Vibration     1          0.657              1.779              1.803
 Vibration     2          0.657              1.779              1.803
 Vibration     3          0.723              1.586              1.190
 Vibration     4          0.760              1.487              0.992
 Vibration     5          0.760              1.487              0.992
 Vibration     6          0.878              1.199              0.603

 Optimization completed.
    -- Stationary point found.
 Normal termination of Gaussian 16 at Thu Jun 16 12:02:40 2022.
