 Gaussian 16, Revision B.01,
 Gaussian 16:  ES64L-G16RevB.01 20-Dec-2017

 --------------------
 # b3lyp/gen opt freq
 --------------------

 ------------------------
 methylene, B3LYP/pcseg-2
 ------------------------
 Symbolic Z-matrix:
 Charge =  0 Multiplicity = 3

 SCF Done:  E(UB3LYP) =  -39.1702338363     A.U. after   11 cycles
 Optimization completed.
    -- Stationary point found.
 Normal termination of Gaussian 16 at Sat Jun 18 10:46:01 2022.

 ------------------------------------------------------------------
 #N Geom=AllCheck Guess=TCheck SCRF=Check GenChk UB3LYP/ChkBas Freq
 ------------------------------------------------------------------

 Structure from the checkpoint file:  "/wrk/irikura/Gau-21735.chk"
 ------------------------
 methylene, B3LYP/pcseg-2
 ------------------------
 Charge =  0 Multiplicity = 3

                         Standard orientation:
 ---------------------------------------------------------------------
 Center     Atomic      Atomic             Coordinates (Angstroms)
 Number     Number       Type             X           Y           Z
 ---------------------------------------------------------------------
      1          6           0        0.000000    0.000000    0.102649
      2          1           0       -0.000000    0.996362   -0.307948
      3          1           0       -0.000000   -0.996362   -0.307948
 ---------------------------------------------------------------------

 SCF Done:  E(UB3LYP) =  -39.1702338363     A.U. after    1 cycles

 The electronic state is 3-B1.
 Alpha  occ. eigenvalues --  -10.22024  -0.68341  -0.46247  -0.28346  -0.24989
 Alpha virt. eigenvalues --    0.02573   0.07306   0.16416   0.17738   0.19482
 Alpha virt. eigenvalues --    0.20736   0.32544   0.36447   0.64158   0.78933
 Alpha virt. eigenvalues --    0.81655   0.83553   0.95242   1.02888   1.04905

  Beta  occ. eigenvalues --  -10.19018  -0.60835  -0.44221
  Beta virt. eigenvalues --   -0.09465  -0.07085   0.03390   0.07581   0.18952
  Beta virt. eigenvalues --    0.21685   0.22628   0.23587   0.34887   0.38463
  Beta virt. eigenvalues --    0.66804   0.84339   0.84525   0.88184   0.98011

 Mulliken charges and spin densities:
               1          2
     1  C   -0.156804   2.041302
     2  H    0.078402  -0.020651
     3  H    0.078402  -0.020651
 Sum of Mulliken charges =   0.00000   2.00000

 Dipole moment (field-independent basis, Debye):
    X=             -0.0000    Y=              0.0000    Z=             -0.6521  Tot=              0.6521
 Quadrupole moment (field-independent basis, Debye-Ang):
   XX=             -8.3838   YY=             -5.9352   ZZ=             -7.8807
   XY=              0.0000   XZ=              0.0000   YZ=              0.0000

  Exact polarizability:  10.139  -0.000  13.752  -0.000  -0.000  10.210
 Approx polarizability:  11.151   0.000  16.039   0.000  -0.000  11.499

                      1                      2                      3
                     A1                     A1                     B2
 Frequencies --   1053.1037              3123.7891              3362.5671
 Red. masses --      1.1372                 1.0263                 1.1388
 Frc consts  --      0.7430                 5.9005                 7.5865
 IR Inten    --     11.7934                 0.6133                 0.3328

 - Thermochemistry -
 -------------------
 Temperature   298.150 Kelvin.  Pressure   1.00000 Atm.
 Atom     1 has atomic number  6 and mass  12.00000

 Molecular mass:    14.01565 amu.
 Principal axes and moments of inertia in atomic units:
                           1         2         3
     Eigenvalues --     1.03899   7.14574   8.18473
           X            0.00000   0.00000   1.00000
           Y            1.00000   0.00000  -0.00000
           Z            0.00000   1.00000   0.00000
 This molecule is an asymmetric top.
 Rotational symmetry number  2.
 Rotational temperatures (Kelvin)     83.36337    12.12106    10.58238
 Rotational constants (GHZ):        1737.01079   252.56185   220.50095
 Zero-point vibrational energy      45096.0 (Joules/Mol)
                                   10.77820 (Kcal/Mol)
 Vibrational temperatures:   1515.18  4494.44  4837.98
          (Kelvin)

 Zero-point correction=                           0.017176 (Hartree/Particle)
 Thermal correction to Energy=                    0.020039
 Thermal correction to Enthalpy=                  0.020983
 Thermal correction to Gibbs Free Energy=        -0.001170
 Sum of electronic and zero-point Energies=            -39.153058
 Sum of electronic and thermal Energies=               -39.150195
 Sum of electronic and thermal Enthalpies=             -39.149251
 Sum of electronic and thermal Free Energies=          -39.171404

                     E (Thermal)             CV                S
                      KCal/Mol        Cal/Mol-Kelvin    Cal/Mol-Kelvin
 Total                   12.574              6.284             46.626
 Electronic               0.000              0.000              2.183
 Translational            0.889              2.981             33.861
 Rotational               0.889              2.981             10.506
 Vibrational             10.797              0.323              0.075

 Optimization completed.
    -- Stationary point found.
 Normal termination of Gaussian 16 at Sat Jun 18 10:46:07 2022.
