 Gaussian 16, Revision B.01,
 Gaussian 16:  ES64L-G16RevB.01 20-Dec-2017

 --------------------
 # b3lyp/gen opt freq
 --------------------

 ------------------------
 propargyl, B3LYP/pcseg-2
 ------------------------
 Symbolic Z-matrix:
 Charge =  0 Multiplicity = 2

 SCF Done:  E(UB3LYP) =  -116.054012104     A.U. after   16 cycles
 SCF Done:  E(UB3LYP) =  -116.054039350     A.U. after   11 cycles
 SCF Done:  E(UB3LYP) =  -116.054039679     A.U. after    8 cycles
 Optimization completed.
    -- Stationary point found.
 Normal termination of Gaussian 16 at Wed Jun 15 10:26:22 2022.

 ------------------------------------------------------------------
 #N Geom=AllCheck Guess=TCheck SCRF=Check GenChk UB3LYP/ChkBas Freq
 ------------------------------------------------------------------

 Structure from the checkpoint file:  "/wrk/irikura/Gau-2868.chk"
 ------------------------
 propargyl, B3LYP/pcseg-2
 ------------------------
 Charge =  0 Multiplicity = 2

                         Standard orientation:
 ---------------------------------------------------------------------
 Center     Atomic      Atomic             Coordinates (Angstroms)
 Number     Number       Type             X           Y           Z
 ---------------------------------------------------------------------
      1          6           0       -0.000000   -0.000000   -1.248788
      2          6           0        0.000000    0.000000    0.115231
      3          6           0        0.000000    0.000000    1.335304
      4          1           0       -0.000000    0.927412   -1.803449
      5          1           0       -0.000000   -0.927412   -1.803449
      6          1           0        0.000000    0.000000    2.396415
 ---------------------------------------------------------------------

 SCF Done:  E(UB3LYP) =  -116.054039679     A.U. after    1 cycles

 The electronic state is 2-B1.
 Alpha  occ. eigenvalues --  -10.20450 -10.18928 -10.18707  -0.79737  -0.71234
 Alpha  occ. eigenvalues --   -0.54755  -0.48417  -0.45882  -0.35180  -0.28928
 Alpha  occ. eigenvalues --   -0.22262
 Alpha virt. eigenvalues --    0.01587   0.02518   0.04312   0.06063   0.08028
 Alpha virt. eigenvalues --    0.10165   0.16749   0.17672   0.17987   0.18896
 Alpha virt. eigenvalues --    0.20794   0.24723   0.29274   0.29446   0.31264

  Beta  occ. eigenvalues --  -10.19360 -10.19174 -10.18008  -0.78521  -0.68805
  Beta  occ. eigenvalues --   -0.53974  -0.47813  -0.45304  -0.31823  -0.28528
  Beta virt. eigenvalues --   -0.10406   0.01686   0.02808   0.04478   0.07558
  Beta virt. eigenvalues --    0.08098   0.10299   0.18005   0.18227   0.19233
  Beta virt. eigenvalues --    0.19433   0.22809   0.25438   0.29197   0.30822

 Mulliken charges and spin densities:
               1          2
     1  C   -0.168152   0.778266
     2  C    0.178024  -0.234020
     3  C   -0.219504   0.531023
     4  H    0.072803  -0.029061
     5  H    0.072803  -0.029061
     6  H    0.064025  -0.017147
 Sum of Mulliken charges =  -0.00000   1.00000

 Dipole moment (field-independent basis, Debye):
    X=             -0.0000    Y=              0.0000    Z=             -0.1012  Tot=              0.1012
 Quadrupole moment (field-independent basis, Debye-Ang):
   XX=            -20.3805   YY=            -18.5741   ZZ=            -13.0585
   XY=              0.0000   XZ=              0.0000   YZ=              0.0000

  Exact polarizability:  21.134   0.000  22.620  -0.000   0.000  59.844
 Approx polarizability:  27.225   0.000  29.320  -0.000  -0.000  98.248

                      1                      2                      3
                     B2                     B1                     B1
 Frequencies --    357.1445               409.8308               481.1508
 Red. masses --      2.7553                 3.3844                 1.3203
 Frc consts  --      0.2071                 0.3349                 0.1801
 IR Inten    --      7.2139                14.6621                48.5738

                      4                      5                      6
                     B2                     B1                     B2
 Frequencies --    640.1862               699.5543              1033.6920
 Red. masses --      1.2407                 1.3703                 1.4519
 Frc consts  --      0.2996                 0.3951                 0.9140
 IR Inten    --     56.5609                49.2205                 0.8076

                      7                      8                      9
                     A1                     A1                     A1
 Frequencies --   1090.7189              1460.9201              2008.2759
 Red. masses --      3.7809                 1.2036                 6.8533
 Frc consts  --      2.6502                 1.5135                16.2853
 IR Inten    --      1.6324                 1.3849                 0.3966

                     10                     11                     12
                     A1                     B2                     A1
 Frequencies --   3146.8539              3235.9434              3463.3696
 Red. masses --      1.0509                 1.1173                 1.1361
 Frc consts  --      6.1316                 6.8931                 8.0293
 IR Inten    --      1.8350                 0.5004                61.6265

 - Thermochemistry -
 -------------------
 Temperature   298.150 Kelvin.  Pressure   1.00000 Atm.
 Atom     1 has atomic number  6 and mass  12.00000

 Molecular mass:    39.02348 amu.
 Principal axes and moments of inertia in atomic units:
                           1         2         3
     Eigenvalues --     6.19096 187.75225 193.94321
           X            0.00000  -0.00000   1.00000
           Y            0.00000   1.00000   0.00000
           Z            1.00000  -0.00000  -0.00000
 This molecule is an asymmetric top.
 Rotational symmetry number  2.
 Rotational temperatures (Kelvin)     13.99038     0.46132     0.44659
 Rotational constants (GHZ):         291.51220     9.61235     9.30551
 Zero-point vibrational energy     107829.2 (Joules/Mol)
                                   25.77181 (Kcal/Mol)
 Warning -- explicit consideration of   3 degrees of freedom as
           vibrations may cause significant error
 Vibrational temperatures:    513.85   589.66   692.27   921.09  1006.50
          (Kelvin)           1487.25  1569.30  2101.94  2889.46  4527.62
                             4655.80  4983.02

 Zero-point correction=                           0.041070 (Hartree/Particle)
 Thermal correction to Energy=                    0.045111
 Thermal correction to Enthalpy=                  0.046055
 Thermal correction to Gibbs Free Energy=         0.017269
 Sum of electronic and zero-point Energies=           -116.012970
 Sum of electronic and thermal Energies=              -116.008929
 Sum of electronic and thermal Enthalpies=            -116.007985
 Sum of electronic and thermal Free Energies=         -116.036771

                     E (Thermal)             CV                S
                      KCal/Mol        Cal/Mol-Kelvin    Cal/Mol-Kelvin
 Total                   28.307             12.768             60.585
 Electronic               0.000              0.000              1.377
 Translational            0.889              2.981             36.913
 Rotational               0.889              2.981             18.672
 Vibrational             26.530              6.807              3.622
 Vibration     1          0.732              1.561              1.135
 Vibration     2          0.774              1.449              0.927
 Vibration     3          0.837              1.292              0.707

 Optimization completed.
    -- Stationary point found.
 Normal termination of Gaussian 16 at Wed Jun 15 10:27:07 2022.
