 Gaussian 16, Revision B.01,

 ---------------------------------------
 # b3lyp/gen opt freq CPHF(Grid=OneStep)
 ---------------------------------------

 ------------------------------------
 1,1,2-trichloroethane, B3LYP/pcseg-2
 ------------------------------------
 Symbolic Z-matrix:
 Charge =  0 Multiplicity = 1

 SCF Done:  E(RB3LYP) =  -1458.76024047     A.U. after   13 cycles
 SCF Done:  E(RB3LYP) =  -1458.76024183     A.U. after    7 cycles
 Optimization completed.
    -- Stationary point found.
 Normal termination of Gaussian 16 at Sat Sep 30 23:55:02 2023.

 ------------------------------------------------------------------
 #N Geom=AllCheck Guess=TCheck SCRF=Check GenChk RB3LYP/ChkBas Freq
 ------------------------------------------------------------------

 Structure from the checkpoint file:  "ch2clchcl2.chk"
 ------------------------------------
 1,1,2-trichloroethane, B3LYP/pcseg-2
 ------------------------------------
 Charge =  0 Multiplicity = 1

 SCF Done:  E(RB3LYP) =  -1458.76024183     A.U. after    1 cycles

  Exact polarizability:  73.448   6.098  61.074  -2.061  -0.119  43.982
 Approx polarizability: 104.223  13.576  93.020  -5.870   0.644  68.623

                      1                      2                      3
                      A                      A                      A
 Frequencies --    104.5589               179.4014               251.2733
 Red. masses --      5.4094                 6.4373                16.7143
 Frc consts  --      0.0348                 0.1221                 0.6218
 IR Inten    --      3.3830                 3.8484                 1.1097

                      4                      5                      6
                      A                      A                      A
 Frequencies --    326.8924               385.2666               657.7264
 Red. masses --     16.0768                 3.3823                 4.5333
 Frc consts  --      1.0122                 0.2958                 1.1555
 IR Inten    --      1.2970                 7.2665                41.8085

                      7                      8                      9
                      A                      A                      A
 Frequencies --    710.6133               763.6081               938.0649
 Red. masses --      9.5445                 5.5123                 1.6363
 Frc consts  --      2.8397                 1.8938                 0.8483
 IR Inten    --    133.5249                13.4084                24.9880

                     10                     11                     12
                      A                      A                      A
 Frequencies --   1054.5158              1177.7930              1227.4060
 Red. masses --      3.7623                 1.1089                 1.0748
 Frc consts  --      2.4650                 0.9063                 0.9540
 IR Inten    --      3.5557                 3.6212                22.1847

                     13                     14                     15
                      A                      A                      A
 Frequencies --   1289.5407              1335.6640              1472.0226
 Red. masses --      1.1649                 1.2258                 1.0894
 Frc consts  --      1.1413                 1.2885                 1.3908
 IR Inten    --     19.6944                 6.2569                 6.1059

                     16                     17                     18
                      A                      A                      A
 Frequencies --   3100.1731              3147.0327              3167.3877
 Red. masses --      1.0564                 1.0912                 1.1078
 Frc consts  --      5.9823                 6.3673                 6.5482
 IR Inten    --      5.0646                 1.1242                 0.2372

 - Thermochemistry -
 -------------------
 Temperature   298.150 Kelvin.  Pressure   1.00000 Atm.
 Atom     1 has atomic number  6 and mass  12.00000

 Molecular mass:   131.93003 amu.
 Principal axes and moments of inertia in atomic units:
                           1         2         3
     Eigenvalues --   521.008591246.654061708.53970
           X            0.99995  -0.00848   0.00465
           Y            0.00852   0.99991  -0.01013
           Z           -0.00456   0.01016   0.99994
 This molecule is an asymmetric top.
 Rotational symmetry number  1.
 Warning -- assumption of classical behavior for rotation
           may cause significant error
 Rotational temperatures (Kelvin)      0.16624     0.06948     0.05069
 Rotational constants (GHZ):           3.46394     1.44767     1.05631
 Zero-point vibrational energy     127336.1 (Joules/Mol)
                                   30.43407 (Kcal/Mol)
 Warning -- explicit consideration of   5 degrees of freedom as
           vibrations may cause significant error
 Vibrational temperatures:    150.44   258.12   361.53   470.33   554.31
          (Kelvin)            946.32  1022.41  1098.66  1349.67  1517.21
                             1694.58  1765.96  1855.36  1921.72  2117.91
                             4460.46  4527.88  4557.16

 Zero-point correction=                           0.048500 (Hartree/Particle)
 Thermal correction to Energy=                    0.054314
 Thermal correction to Enthalpy=                  0.055258
 Thermal correction to Gibbs Free Energy=         0.017250
 Sum of electronic and zero-point Energies=          -1458.711742
 Sum of electronic and thermal Energies=             -1458.705928
 Sum of electronic and thermal Enthalpies=           -1458.704984
 Sum of electronic and thermal Free Energies=        -1458.742992

                     E (Thermal)             CV                S
                      KCal/Mol        Cal/Mol-Kelvin    Cal/Mol-Kelvin
 Total                   34.082             18.639             79.994
 Electronic               0.000              0.000              0.000
 Translational            0.889              2.981             40.544
 Rotational               0.889              2.981             28.497
 Vibrational             32.305             12.678             10.953
 Vibration     1          0.605              1.946              3.368
 Vibration     2          0.629              1.868              2.335
 Vibration     3          0.663              1.761              1.722
 Vibration     4          0.711              1.622              1.275
 Vibration     5          0.754              1.502              1.018

 Optimization completed.
    -- Stationary point found.
 Normal termination of Gaussian 16 at Sat Sep 30 23:59:27 2023.
 Gaussian 16:  ES64L-G16RevB.01 20-Dec-2017

 ---------------------------------
 # rohf/gen geom=check guess=check
 ---------------------------------

 ---------------------------------------
 1,1,2-trichloroethane, ROHF/cc-pVTZ-F12
 ---------------------------------------
 Structure from the checkpoint file:  "ch2clchcl2.chk"
 Charge =  0 Multiplicity = 1

                         Standard orientation:
 ---------------------------------------------------------------------
 Center     Atomic      Atomic             Coordinates (Angstroms)
 Number     Number       Type             X           Y           Z
 ---------------------------------------------------------------------
      1          6           0        0.666964   -0.827912    0.403238
      2          6           0       -0.409444   -0.078596   -0.357047
      3         17           0        2.311493   -0.300951   -0.094146
      4          1           0        0.570859   -0.664824    1.471916
      5          1           0        0.591970   -1.887701    0.180050
      6         17           0       -1.988238   -0.873785   -0.015611
      7         17           0       -0.467222    1.652367    0.080329
      8          1           0       -0.260499   -0.128166   -1.428832
 ---------------------------------------------------------------------

 SCF Done:  E(ROHF) =  -1456.07951803     A.U. after   11 cycles

 The electronic state is 1-A.
 Alpha  occ. eigenvalues -- -104.85698-104.85282-104.84448 -11.38597 -11.32652
 Alpha  occ. eigenvalues --  -10.58215 -10.57805 -10.56961  -8.04901  -8.04742
 Alpha  occ. eigenvalues --   -8.04737  -8.04495  -8.04331  -8.04327  -8.03655
 Alpha  occ. eigenvalues --   -8.03500  -8.03495  -1.21774  -1.13808  -1.10170
 Alpha  occ. eigenvalues --   -0.97817  -0.84813  -0.69106  -0.63747  -0.63421
 Alpha  occ. eigenvalues --   -0.58194  -0.54765  -0.48406  -0.47818  -0.46804
 Alpha  occ. eigenvalues --   -0.45637  -0.45277  -0.44732
 Alpha virt. eigenvalues --    0.04614   0.05457   0.05977   0.06266   0.07973
 Alpha virt. eigenvalues --    0.08399   0.10467   0.10903   0.11045   0.12054
 Alpha virt. eigenvalues --    0.13208   0.13644   0.14043   0.14349   0.14964

 Mulliken charges and spin densities:
               1          2
     1  C   -0.187561   0.000000
     2  C   -0.179398   0.000000
     3  Cl  -0.074895   0.000000
     4  H    0.162777   0.000000
     5  H    0.143353   0.000000
     6  Cl  -0.037036   0.000000
     7  Cl  -0.018306   0.000000
     8  H    0.191066   0.000000
 Sum of Mulliken charges =  -0.00000   0.00000

 Dipole moment (field-independent basis, Debye):
    X=             -0.0876    Y=             -1.3674    Z=             -0.1131  Tot=              1.3749
 Quadrupole moment (field-independent basis, Debye-Ang):
   XX=            -56.4900   YY=            -50.5924   ZZ=            -48.8031
   XY=             -0.1908   XZ=              0.5540   YZ=             -0.4389

 Normal termination of Gaussian 16 at Sun Oct  1 00:02:22 2023.
