 Gaussian 16, Revision B.01,

 ---------------------------------------
 # b3lyp/gen opt freq CPHF(Grid=OneStep)
 ---------------------------------------

 -----------------------------------
 1,2,3,5-hexatetraene, B3LYP/pcseg-2
 -----------------------------------
 Symbolic Z-matrix:
 Charge =  0 Multiplicity = 1

 SCF Done:  E(RB3LYP) =  -232.233172136     A.U. after   14 cycles
 Optimization completed.
    -- Stationary point found.
 Normal termination of Gaussian 16 at Thu Sep 28 17:06:09 2023.

 ------------------------------------------------------------------
 #N Geom=AllCheck Guess=TCheck SCRF=Check GenChk RB3LYP/ChkBas Freq
 ------------------------------------------------------------------

 Structure from the checkpoint file:  "ch2ccchchch2.chk"
 -----------------------------------
 1,2,3,5-hexatetraene, B3LYP/pcseg-2
 -----------------------------------
 Charge =  0 Multiplicity = 1

 SCF Done:  E(RB3LYP) =  -232.233172136     A.U. after    1 cycles

  Exact polarizability:  84.829  59.476 161.934  -0.000  -0.000  41.152
 Approx polarizability: 146.739 124.604 284.025  -0.000   0.000  58.347

                      1                      2                      3
                     A"                     A'                     A"
 Frequencies --    108.2562               109.9195               251.5235
 Red. masses --      2.6623                 3.5461                 3.6609
 Frc consts  --      0.0184                 0.0252                 0.1365
 IR Inten    --      1.3670                 1.0951                 3.4287

                      4                      5                      6
                     A'                     A'                     A"
 Frequencies --    302.3888               389.3920               473.8236
 Red. masses --      2.9580                 2.9780                 1.1352
 Frc consts  --      0.1594                 0.2660                 0.1502
 IR Inten    --      7.2664                 4.7858                 2.7267

                      7                      8                      9
                     A'                     A"                     A"
 Frequencies --    522.3309               563.2594               698.4246
 Red. masses --      5.9386                 5.6696                 1.3525
 Frc consts  --      0.9546                 1.0598                 0.3887
 IR Inten    --      2.7272                 1.7929                 9.1164

                     10                     11                     12
                     A"                     A'                     A"
 Frequencies --    876.1126               881.7516               893.2000
 Red. masses --      1.3274                 2.2920                 1.3884
 Frc consts  --      0.6003                 1.0499                 0.6526
 IR Inten    --     50.0422                 0.4005                 2.2284

                     13                     14                     15
                     A"                     A'                     A"
 Frequencies --    945.9706              1009.2967              1033.4679
 Red. masses --      1.3856                 1.9734                 1.1247
 Frc consts  --      0.7305                 1.1844                 0.7077
 IR Inten    --     54.9080                 6.7815                20.3370

                     16                     17                     18
                     A'                     A'                     A'
 Frequencies --   1034.2296              1188.2193              1299.6104
 Red. masses --      1.4522                 2.3746                 1.2591
 Frc consts  --      0.9152                 1.9753                 1.2530
 IR Inten    --      0.3097                 1.1563                 8.3467

                     19                     20                     21
                     A'                     A'                     A'
 Frequencies --   1322.9680              1434.9410              1470.7213
 Red. masses --      1.3392                 1.2030                 1.2602
 Frc consts  --      1.3810                 1.4594                 1.6060
 IR Inten    --      1.1740                 0.4204                 9.4524

                     22                     23                     24
                     A'                     A'                     A'
 Frequencies --   1645.3224              1682.1001              2175.5593
 Red. masses --      4.3093                 5.5466                11.5080
 Frc consts  --      6.8732                 9.2466                32.0917
 IR Inten    --      0.1560                12.9169                25.8570

                     25                     26                     27
                     A'                     A'                     A'
 Frequencies --   3116.3481              3126.9623              3143.1453
 Red. masses --      1.0856                 1.0557                 1.0585
 Frc consts  --      6.2117                 6.0821                 6.1613
 IR Inten    --      3.4257                 1.0487                 6.2630

                     28                     29                     30
                     A'                     A'                     A'
 Frequencies --   3159.7710              3202.6541              3232.3280
 Red. masses --      1.0913                 1.1156                 1.1153
 Frc consts  --      6.4196                 6.7419                 6.8656
 IR Inten    --      5.9569                 1.5095                 8.5456

 - Thermochemistry -
 -------------------
 Temperature   298.150 Kelvin.  Pressure   1.00000 Atm.
 Atom     1 has atomic number  6 and mass  12.00000

 Molecular mass:    78.04695 amu.
 Principal axes and moments of inertia in atomic units:
                           1         2         3
     Eigenvalues --    58.099071328.144091386.24317
           X            0.40614   0.91381   0.00000
           Y            0.91381  -0.40614   0.00000
           Z            0.00000   0.00000   1.00000
 This molecule is an asymmetric top.
 Rotational symmetry number  1.
 Rotational temperatures (Kelvin)      1.49080     0.06521     0.06248
 Rotational constants (GHZ):          31.06317     1.35884     1.30189
 Zero-point vibrational energy     246993.0 (Joules/Mol)
                                   59.03273 (Kcal/Mol)
 Warning -- explicit consideration of   8 degrees of freedom as
           vibrations may cause significant error
 Vibrational temperatures:    155.76   158.15   361.89   435.07   560.25
          (Kelvin)            681.73   751.52   810.40  1004.88  1260.53
                             1268.64  1285.12  1361.04  1452.15  1486.93
                             1488.03  1709.58  1869.85  1903.46  2064.56
                             2116.04  2367.25  2420.17  3130.14  4483.73
                             4499.00  4522.29  4546.21  4607.90  4650.60

 Zero-point correction=                           0.094075 (Hartree/Particle)
 Thermal correction to Energy=                    0.100684
 Thermal correction to Enthalpy=                  0.101628
 Thermal correction to Gibbs Free Energy=         0.064113
 Sum of electronic and zero-point Energies=           -232.139097
 Sum of electronic and thermal Energies=              -232.132488
 Sum of electronic and thermal Enthalpies=            -232.131544
 Sum of electronic and thermal Free Energies=         -232.169059

                     E (Thermal)             CV                S
                      KCal/Mol        Cal/Mol-Kelvin    Cal/Mol-Kelvin
 Total                   63.180             23.044             78.958
 Electronic               0.000              0.000              0.000
 Translational            0.889              2.981             38.979
 Rotational               0.889              2.981             26.173
 Vibrational             61.403             17.082             13.807
 Vibration     1          0.606              1.943              3.300
 Vibration     2          0.606              1.941              3.270
 Vibration     3          0.663              1.760              1.720
 Vibration     4          0.694              1.669              1.404
 Vibration     5          0.757              1.493              1.002
 Vibration     6          0.831              1.308              0.727
 Vibration     7          0.877              1.201              0.605
 Vibration     8          0.919              1.111              0.517

 Optimization completed.
    -- Stationary point found.
 Normal termination of Gaussian 16 at Thu Sep 28 17:13:47 2023.
 Gaussian 16:  ES64L-G16RevB.01 20-Dec-2017

 ---------------------------------
 # rohf/gen geom=check guess=check
 ---------------------------------

 --------------------------------------
 1,2,3,5-hexatetraene, ROHF/cc-pVTZ-F12
 --------------------------------------
 Structure from the checkpoint file:  "ch2ccchchch2.chk"
 Charge =  0 Multiplicity = 1

                         Standard orientation:
 ---------------------------------------------------------------------
 Center     Atomic      Atomic             Coordinates (Angstroms)
 Number     Number       Type             X           Y           Z
 ---------------------------------------------------------------------
      1          6           0        1.514602    2.789640    0.000000
      2          6           0        0.741283    1.726084    0.000000
      3          6           0       -0.000000    0.708464    0.000000
      4          6           0       -0.784169   -0.358982   -0.000000
      5          6           0       -0.307092   -1.726451   -0.000000
      6          6           0       -1.112938   -2.793352   -0.000000
      7          1           0        2.593839    2.702172    0.000000
      8          1           0        1.097759    3.789023    0.000000
      9          1           0       -1.861319   -0.213254   -0.000000
     10          1           0       -2.190638   -2.688650   -0.000000
     11          1           0       -0.717835   -3.798922   -0.000000
     12          1           0        0.768080   -1.862786   -0.000000
 ---------------------------------------------------------------------

 SCF Done:  E(ROHF) =  -230.674698903     A.U. after   12 cycles

 The electronic state is 1-A'.
 Alpha  occ. eigenvalues --  -11.26239 -11.25701 -11.25103 -11.25036 -11.24714
 Alpha  occ. eigenvalues --  -11.23661  -1.11480  -1.06603  -0.99547  -0.90036
 Alpha  occ. eigenvalues --   -0.78806  -0.70971  -0.66424  -0.62833  -0.61021
 Alpha  occ. eigenvalues --   -0.58778  -0.52388  -0.49329  -0.41287  -0.37912
 Alpha  occ. eigenvalues --   -0.30318
 Alpha virt. eigenvalues --    0.04324   0.04801   0.04978   0.05296   0.06326
 Alpha virt. eigenvalues --    0.07221   0.07802   0.09078   0.09371   0.09433
 Alpha virt. eigenvalues --    0.10481   0.11133   0.11373   0.12912   0.13480

 Mulliken charges and spin densities:
               1          2
     1  C   -0.330694   0.000000
     2  C   -0.051642   0.000000
     3  C    0.004963   0.000000
     4  C   -0.157672   0.000000
     5  C   -0.102523   0.000000
     6  C   -0.351670   0.000000
     7  H    0.169102   0.000000
     8  H    0.168736   0.000000
     9  H    0.170964   0.000000
    10  H    0.136971   0.000000
    11  H    0.162707   0.000000
    12  H    0.180758   0.000000
 Sum of Mulliken charges =  -0.00000   0.00000

 Dipole moment (field-independent basis, Debye):
    X=             -0.0678    Y=             -0.2535    Z=             -0.0000  Tot=              0.2624
 Quadrupole moment (field-independent basis, Debye-Ang):
   XX=            -32.1257   YY=            -30.5841   ZZ=            -41.1338
   XY=              2.7049   XZ=              0.0000   YZ=             -0.0000

 Normal termination of Gaussian 16 at Thu Sep 28 17:18:36 2023.
