 Gaussian 16, Revision B.01,

 ---------------------------------------
 # b3lyp/gen opt freq CPHF(Grid=OneStep)
 ---------------------------------------

 ------------------------------
 propargylallene, B3LYP/pcseg-2
 ------------------------------
 Symbolic Z-matrix:
 Charge =  0 Multiplicity = 1

 SCF Done:  E(RB3LYP) =  -232.209492527     A.U. after   13 cycles
 SCF Done:  E(RB3LYP) =  -232.209492449     A.U. after    7 cycles
 Optimization completed.
    -- Stationary point found.
 Normal termination of Gaussian 16 at Sat Sep 30 19:26:21 2023.

 ------------------------------------------------------------------
 #N Geom=AllCheck Guess=TCheck SCRF=Check GenChk RB3LYP/ChkBas Freq
 ------------------------------------------------------------------

 Structure from the checkpoint file:  "ch2cchch2cch.chk"
 ------------------------------
 propargylallene, B3LYP/pcseg-2
 ------------------------------
 Charge =  0 Multiplicity = 1

 SCF Done:  E(RB3LYP) =  -232.209492449     A.U. after    1 cycles

  Exact polarizability: 112.290   0.246  54.262  10.356   0.741  49.883
 Approx polarizability: 155.500  -2.098  81.962  22.092   2.197  72.625

                      1                      2                      3
                      A                      A                      A
 Frequencies --     57.1930               166.5828               216.8521
 Red. masses --      3.3601                 2.7596                 3.4571
 Frc consts  --      0.0065                 0.0451                 0.0958
 IR Inten    --      0.0345                 1.4155                 0.1564

                      4                      5                      6
                      A                      A                      A
 Frequencies --    332.1671               354.3895               462.1391
 Red. masses --      2.4815                 2.3279                 2.8234
 Frc consts  --      0.1613                 0.1723                 0.3553
 IR Inten    --      3.9253                14.0377                 5.9657

                      7                      8                      9
                      A                      A                      A
 Frequencies --    548.2761               602.6902               671.5523
 Red. masses --      3.7654                 1.9915                 1.2611
 Frc consts  --      0.6669                 0.4262                 0.3351
 IR Inten    --     10.3704                12.1429                51.8587

                     10                     11                     12
                      A                      A                      A
 Frequencies --    685.1514               876.7632               888.2511
 Red. masses --      1.2766                 1.4047                 1.3144
 Frc consts  --      0.3531                 0.6362                 0.6110
 IR Inten    --     48.9632                 6.4497                52.3179

                     13                     14                     15
                      A                      A                      A
 Frequencies --    921.7779               955.9311              1022.4730
 Red. masses --      1.6663                 3.8613                 3.0644
 Frc consts  --      0.8341                 2.0789                 1.8876
 IR Inten    --     17.4363                 3.1411                 0.2919

                     16                     17                     18
                      A                      A                      A
 Frequencies --   1023.5385              1145.9008              1219.6037
 Red. masses --      1.5192                 1.6773                 1.1491
 Frc consts  --      0.9377                 1.2977                 1.0070
 IR Inten    --      0.6938                 0.1981                 0.2224

                     19                     20                     21
                      A                      A                      A
 Frequencies --   1308.6615              1375.9056              1465.8445
 Red. masses --      1.3170                 1.3761                 1.0832
 Frc consts  --      1.3289                 1.5349                 1.3713
 IR Inten    --     25.0792                 1.0039                 6.1009

                     22                     23                     24
                      A                      A                      A
 Frequencies --   1482.3053              2048.4619              2219.8998
 Red. masses --      1.5138                10.1070                 5.9696
 Frc consts  --      1.9598                24.9879                17.3326
 IR Inten    --      4.1363                57.6238                 9.9629

                     25                     26                     27
                      A                      A                      A
 Frequencies --   3014.0325              3070.0203              3121.6885
 Red. masses --      1.0666                 1.0930                 1.0576
 Frc consts  --      5.7089                 6.0693                 6.0722
 IR Inten    --     10.9841                 2.9494                 3.0084

                     28                     29                     30
                      A                      A                      A
 Frequencies --   3139.9857              3193.2963              3472.3423
 Red. masses --      1.0875                 1.1148                 1.1602
 Frc consts  --      6.3175                 6.6975                 8.2416
 IR Inten    --      2.2927                 1.2757                73.0767

 - Thermochemistry -
 -------------------
 Temperature   298.150 Kelvin.  Pressure   1.00000 Atm.
 Atom     1 has atomic number  6 and mass  12.00000

 Molecular mass:    78.04695 amu.
 Principal axes and moments of inertia in atomic units:
                           1         2         3
     Eigenvalues --   124.818281166.978401207.05176
           X            0.99997   0.00235   0.00766
           Y           -0.00221   0.99983  -0.01822
           Z           -0.00770   0.01820   0.99980
 This molecule is an asymmetric top.
 Rotational symmetry number  1.
 Rotational temperatures (Kelvin)      0.69392     0.07422     0.07176
 Rotational constants (GHZ):          14.45895     1.54651     1.49516
 Zero-point vibrational energy     245615.3 (Joules/Mol)
                                   58.70347 (Kcal/Mol)
 Warning -- explicit consideration of   8 degrees of freedom as
           vibrations may cause significant error
 Vibrational temperatures:     82.29   239.68   312.00   477.91   509.89
          (Kelvin)            664.92   788.85   867.14   966.21   985.78
                             1261.47  1278.00  1326.23  1375.37  1471.11
                             1472.64  1648.70  1754.74  1882.87  1979.62
                             2109.02  2132.71  2947.28  3193.94  4336.52
                             4417.07  4491.41  4517.74  4594.44  4995.93

 Zero-point correction=                           0.093550 (Hartree/Particle)
 Thermal correction to Energy=                    0.100279
 Thermal correction to Enthalpy=                  0.101224
 Thermal correction to Gibbs Free Energy=         0.063049
 Sum of electronic and zero-point Energies=           -232.115943
 Sum of electronic and thermal Energies=              -232.109213
 Sum of electronic and thermal Enthalpies=            -232.108269
 Sum of electronic and thermal Free Energies=         -232.146443

                     E (Thermal)             CV                S
                      KCal/Mol        Cal/Mol-Kelvin    Cal/Mol-Kelvin
 Total                   62.926             23.586             80.345
 Electronic               0.000              0.000              0.000
 Translational            0.889              2.981             38.979
 Rotational               0.889              2.981             26.666
 Vibrational             61.149             17.624             14.699
 Vibration     1          0.596              1.975              4.552
 Vibration     2          0.624              1.884              2.474
 Vibration     3          0.646              1.815              1.985
 Vibration     4          0.714              1.611              1.250
 Vibration     5          0.730              1.566              1.147
 Vibration     6          0.820              1.334              0.760
 Vibration     7          0.904              1.143              0.548
 Vibration     8          0.961              1.026              0.445

 Optimization completed.
    -- Stationary point found.
 Normal termination of Gaussian 16 at Sat Sep 30 19:37:10 2023.
 Gaussian 16:  ES64L-G16RevB.01 20-Dec-2017

 ---------------------------------
 # rohf/gen geom=check guess=check
 ---------------------------------

 ---------------------------------
 propargylallene, ROHF/cc-pVTZ-F12
 ---------------------------------
 Structure from the checkpoint file:  "ch2cchch2cch.chk"
 Charge =  0 Multiplicity = 1

                         Standard orientation:
 ---------------------------------------------------------------------
 Center     Atomic      Atomic             Coordinates (Angstroms)
 Number     Number       Type             X           Y           Z
 ---------------------------------------------------------------------
      1          6           0       -2.838961   -0.437703   -0.242576
      2          6           0       -1.665707   -0.070712    0.182946
      3          6           0       -0.490612    0.294999    0.602924
      4          6           0        0.625760    0.774123   -0.307724
      5          6           0        1.855328    0.002673   -0.148257
      6          6           0        2.860920   -0.634355   -0.003501
      7          1           0       -3.649913    0.272918   -0.348324
      8          1           0       -3.046791   -1.468522   -0.503547
      9          1           0       -0.269509    0.264473    1.664704
     10          1           0        0.840264    1.825313   -0.090163
     11          1           0        0.294728    0.730659   -1.346240
     12          1           0        3.750855   -1.198991    0.120699
 ---------------------------------------------------------------------

 SCF Done:  E(ROHF) =  -230.664653351     A.U. after   12 cycles

 The electronic state is 1-A.
 Alpha  occ. eigenvalues --  -11.26605 -11.25742 -11.24862 -11.23863 -11.23539
 Alpha  occ. eigenvalues --  -11.22179  -1.11178  -1.05224  -0.99190  -0.91420
 Alpha  occ. eigenvalues --   -0.72425  -0.71696  -0.65674  -0.63345  -0.61078
 Alpha  occ. eigenvalues --   -0.60174  -0.56269  -0.40211  -0.39270  -0.37594
 Alpha  occ. eigenvalues --   -0.37058
 Alpha virt. eigenvalues --    0.04193   0.04646   0.05409   0.05827   0.06986
 Alpha virt. eigenvalues --    0.07670   0.08437   0.08740   0.09246   0.09614
 Alpha virt. eigenvalues --    0.10297   0.11374   0.12936   0.13833   0.14274

 Mulliken charges and spin densities:
               1          2
     1  C   -0.267593   0.000000
     2  C   -0.134354   0.000000
     3  C   -0.065001   0.000000
     4  C   -0.207374   0.000000
     5  C    0.012901   0.000000
     6  C   -0.291999   0.000000
     7  H    0.163015   0.000000
     8  H    0.167834   0.000000
     9  H    0.169232   0.000000
    10  H    0.114259   0.000000
    11  H    0.116673   0.000000
    12  H    0.222406   0.000000
 Sum of Mulliken charges =  -0.00000   0.00000

 Dipole moment (field-independent basis, Debye):
    X=             -0.4413    Y=              0.3369    Z=             -0.1105  Tot=              0.5661
 Quadrupole moment (field-independent basis, Debye-Ang):
   XX=            -32.2326   YY=            -35.4117   ZZ=            -37.4093
   XY=             -1.2500   XZ=              2.0037   YZ=             -0.0096

 Normal termination of Gaussian 16 at Sat Sep 30 19:42:22 2023.
