 Gaussian 16, Revision B.01,

 ---------------------------------------
 # b3lyp/gen opt freq CPHF(Grid=OneStep)
 ---------------------------------------

 ---------------------------
 chloroallene, B3LYP/pcseg-2
 ---------------------------
 Symbolic Z-matrix:
 Charge =  0 Multiplicity = 1

 SCF Done:  E(RB3LYP) =  -576.341113097     A.U. after   13 cycles
 SCF Done:  E(RB3LYP) =  -576.341080201     A.U. after    8 cycles
 SCF Done:  E(RB3LYP) =  -576.341113173     A.U. after    9 cycles
 SCF Done:  E(RB3LYP) =  -576.341113414     A.U. after    6 cycles
 Optimization completed.
    -- Stationary point found.
 Normal termination of Gaussian 16 at Sat Sep 30 09:59:32 2023.

 ------------------------------------------------------------------
 #N Geom=AllCheck Guess=TCheck SCRF=Check GenChk RB3LYP/ChkBas Freq
 ------------------------------------------------------------------

 Structure from the checkpoint file:  "ch2cchcl.chk"
 ---------------------------
 chloroallene, B3LYP/pcseg-2
 ---------------------------
 Charge =  0 Multiplicity = 1

 SCF Done:  E(RB3LYP) =  -576.341113414     A.U. after    1 cycles

  Exact polarizability:  80.040 -10.657  39.133   0.000  -0.000  29.985
 Approx polarizability: 122.032 -19.853  59.452   0.000  -0.000  42.398

                      1                      2                      3
                     A'                     A"                     A'
 Frequencies --    184.2989               318.0821               505.6028
 Red. masses --      5.0609                 2.1107                 8.7061
 Frc consts  --      0.1013                 0.1258                 1.3113
 IR Inten    --      1.1004                 9.6627                 6.9193

                      4                      5                      6
                     A"                     A'                     A"
 Frequencies --    571.7725               757.1590               854.6272
 Red. masses --      1.5232                 7.1275                 1.1299
 Frc consts  --      0.2934                 2.4075                 0.4862
 IR Inten    --      2.7493                74.1727                25.6489

                      7                      8                      9
                     A'                     A"                     A'
 Frequencies --    915.3889              1021.7599              1135.0067
 Red. masses --      1.3180                 1.4887                 1.8743
 Frc consts  --      0.6507                 0.9157                 1.4226
 IR Inten    --     48.3461                 0.3915                 4.7718

                     10                     11                     12
                     A'                     A'                     A'
 Frequencies --   1280.2035              1469.7829              2046.7790
 Red. masses --      1.4298                 1.3180                 9.8709
 Frc consts  --      1.3806                 1.6775                24.3641
 IR Inten    --     46.4191                13.0309                 5.3114

                     13                     14                     15
                     A'                     A"                     A'
 Frequencies --   3119.4625              3192.1454              3201.6826
 Red. masses --      1.0576                 1.1150                 1.0920
 Frc consts  --      6.0634                 6.6940                 6.5955
 IR Inten    --      2.5147                 0.4985                 5.5919

 - Thermochemistry -
 -------------------
 Temperature   298.150 Kelvin.  Pressure   1.00000 Atm.
 Atom     1 has atomic number  6 and mass  12.00000

 Molecular mass:    73.99233 amu.
 Principal axes and moments of inertia in atomic units:
                           1         2         3
     Eigenvalues --    54.94239 638.16215 680.78311
           X            0.99820   0.05991   0.00000
           Y           -0.05991   0.99820   0.00000
           Z            0.00000  -0.00000   1.00000
 This molecule is an asymmetric top.
 Rotational symmetry number  1.
 Rotational temperatures (Kelvin)      1.57645     0.13572     0.12723
 Rotational constants (GHZ):          32.84788     2.82803     2.65098
 Zero-point vibrational energy     123058.4 (Joules/Mol)
                                   29.41166 (Kcal/Mol)
 Warning -- explicit consideration of   4 degrees of freedom as
           vibrations may cause significant error
 Vibrational temperatures:    265.16   457.65   727.45   822.65  1089.38
          (Kelvin)           1229.62  1317.04  1470.08  1633.02  1841.93
                             2114.69  2944.86  4488.21  4592.79  4606.51

 Zero-point correction=                           0.046870 (Hartree/Particle)
 Thermal correction to Energy=                    0.051363
 Thermal correction to Enthalpy=                  0.052308
 Thermal correction to Gibbs Free Energy=         0.019533
 Sum of electronic and zero-point Energies=           -576.294243
 Sum of electronic and thermal Energies=              -576.289750
 Sum of electronic and thermal Enthalpies=            -576.288806
 Sum of electronic and thermal Free Energies=         -576.321580

                     E (Thermal)             CV                S
                      KCal/Mol        Cal/Mol-Kelvin    Cal/Mol-Kelvin
 Total                   32.231             14.417             68.979
 Electronic               0.000              0.000              0.000
 Translational            0.889              2.981             38.820
 Rotational               0.889              2.981             24.682
 Vibrational             30.454              8.455              5.477
 Vibration     1          0.631              1.861              2.284
 Vibration     2          0.704              1.639              1.320
 Vibration     3          0.861              1.238              0.644
 Vibration     4          0.928              1.092              0.501

 Optimization completed.
    -- Stationary point found.
 Normal termination of Gaussian 16 at Sat Sep 30 10:01:39 2023.
 Gaussian 16:  ES64L-G16RevB.01 20-Dec-2017

 ---------------------------------
 # rohf/gen geom=check guess=check
 ---------------------------------

 ------------------------------
 chloroallene, ROHF/cc-pVTZ-F12
 ------------------------------
 Structure from the checkpoint file:  "ch2cchcl.chk"
 Charge =  0 Multiplicity = 1

                         Standard orientation:
 ---------------------------------------------------------------------
 Center     Atomic      Atomic             Coordinates (Angstroms)
 Number     Number       Type             X           Y           Z
 ---------------------------------------------------------------------
      1          6           0        1.142301    0.103816    0.000000
      2          6           0        2.294425   -0.497074    0.000000
      3          6           0        0.000000    0.716868    0.000000
      4          1           0        2.794623   -0.758787    0.925144
      5          1           0        2.794623   -0.758787   -0.925144
      6          1           0       -0.104652    1.791091    0.000000
      7         17           0       -1.535585   -0.130305    0.000000
 ---------------------------------------------------------------------

 SCF Done:  E(ROHF) =  -574.848835020     A.U. after   12 cycles

 The electronic state is 1-A'.
 Alpha  occ. eigenvalues -- -104.84200 -11.30372 -11.27257 -11.25974 -10.56657
 Alpha  occ. eigenvalues --   -8.03359  -8.03194  -8.03188  -1.15696  -1.06628
 Alpha  occ. eigenvalues --   -0.94978  -0.73498  -0.66615  -0.62865  -0.59579
 Alpha  occ. eigenvalues --   -0.50767  -0.45631  -0.40113  -0.37179
 Alpha virt. eigenvalues --    0.04781   0.05533   0.06610   0.06628   0.07726
 Alpha virt. eigenvalues --    0.08286   0.09985   0.11544   0.12194   0.12595
 Alpha virt. eigenvalues --    0.13420   0.13480   0.14319   0.16387   0.16996

 Mulliken charges and spin densities:
               1          2
     1  C   -0.094056  -0.000000
     2  C   -0.221283  -0.000000
     3  C   -0.187204  -0.000000
     4  H    0.167135  -0.000000
     5  H    0.167135  -0.000000
     6  H    0.221113  -0.000000
     7  Cl  -0.052840  -0.000000
 Sum of Mulliken charges =  -0.00000  -0.00000

 Dipole moment (field-independent basis, Debye):
    X=              1.9281    Y=              0.4491    Z=             -0.0000  Tot=              1.9797
 Quadrupole moment (field-independent basis, Debye-Ang):
   XX=            -28.1904   YY=            -29.6315   ZZ=            -31.2668
   XY=             -2.1180   XZ=             -0.0000   YZ=              0.0000

 Normal termination of Gaussian 16 at Sat Sep 30 10:02:42 2023.
