 Gaussian 16, Revision B.01,

 ---------------------------------------
 # b3lyp/gen opt freq CPHF(Grid=OneStep)
 ---------------------------------------

 ---------------------------
 1-cyanovinyl, B3LYP/pcseg-2
 ---------------------------
 Symbolic Z-matrix:
 Charge =  0 Multiplicity = 2

 SCF Done:  E(UB3LYP) =  -170.227852549     A.U. after   20 cycles
 Optimization completed.
    -- Stationary point found.
 Normal termination of Gaussian 16 at Fri Sep 29 15:12:39 2023.

 ------------------------------------------------------------------
 #N Geom=AllCheck Guess=TCheck SCRF=Check GenChk UB3LYP/ChkBas Freq
 ------------------------------------------------------------------

 Structure from the checkpoint file:  "ch2ccn.chk"
 ---------------------------
 1-cyanovinyl, B3LYP/pcseg-2
 ---------------------------
 Charge =  0 Multiplicity = 2

 SCF Done:  E(UB3LYP) =  -170.227852549     A.U. after    1 cycles

  Exact polarizability:  29.336  14.148  74.888   0.000   0.000  22.468
 Approx polarizability:  42.306  29.313 138.657  -0.000  -0.000  30.345

                      1                      2                      3
                     A'                     A"                     A'
 Frequencies --     85.9923               246.6204               421.3894
 Red. masses --      3.5730                 3.7419                11.9571
 Frc consts  --      0.0156                 0.1341                 1.2510
 IR Inten    --      1.2828                 0.5164                 8.0490

                      4                      5                      6
                     A"                     A'                     A"
 Frequencies --    572.2969               882.0638               931.2774
 Red. masses --      7.3628                 5.8980                 1.3229
 Frc consts  --      1.4208                 2.7037                 0.6760
 IR Inten    --      7.0819                 1.2604                44.1768

                      7                      8                      9
                     A'                     A'                     A'
 Frequencies --    967.0198              1432.5656              1820.4506
 Red. masses --      1.3495                 1.1186                10.0531
 Frc consts  --      0.7435                 1.3525                19.6295
 IR Inten    --      0.5715                 4.8573                 5.0874

                     10                     11                     12
                     A'                     A'                     A'
 Frequencies --   2097.6102              3072.6445              3146.4022
 Red. masses --     12.4371                 1.0565                 1.1104
 Frc consts  --     32.2417                 5.8766                 6.4768
 IR Inten    --      2.0653                 0.2185                 0.0684

 - Thermochemistry -
 -------------------
 Temperature   298.150 Kelvin.  Pressure   1.00000 Atm.
 Atom     1 has atomic number  6 and mass  12.00000

 Molecular mass:    52.01872 amu.
 Principal axes and moments of inertia in atomic units:
                           1         2         3
     Eigenvalues --     7.25162 413.80866 421.06028
           X            0.26282   0.96485   0.00000
           Y            0.96485  -0.26282   0.00000
           Z            0.00000   0.00000   1.00000
 This molecule is an asymmetric top.
 Rotational symmetry number  1.
 Rotational temperatures (Kelvin)     11.94408     0.20931     0.20570
 Rotational constants (GHZ):         248.87428     4.36129     4.28618
 Zero-point vibrational energy      93765.3 (Joules/Mol)
                                   22.41044 (Kcal/Mol)
 Warning -- explicit consideration of   4 degrees of freedom as
           vibrations may cause significant error
 Vibrational temperatures:    123.72   354.83   606.29   823.41  1269.09
          (Kelvin)           1339.90  1391.33  2061.14  2619.22  3017.99
                             4420.85  4526.97

 Zero-point correction=                           0.035713 (Hartree/Particle)
 Thermal correction to Energy=                    0.040420
 Thermal correction to Enthalpy=                  0.041364
 Thermal correction to Gibbs Free Energy=         0.008960
 Sum of electronic and zero-point Energies=           -170.192139
 Sum of electronic and thermal Energies=              -170.187433
 Sum of electronic and thermal Enthalpies=            -170.186489
 Sum of electronic and thermal Free Energies=         -170.218893

                     E (Thermal)             CV                S
                      KCal/Mol        Cal/Mol-Kelvin    Cal/Mol-Kelvin
 Total                   25.364             13.729             68.200
 Electronic               0.000              0.000              1.377
 Translational            0.889              2.981             37.770
 Rotational               0.889              2.981             21.762
 Vibrational             23.586              7.767              7.291
 Vibration     1          0.601              1.959              3.749
 Vibration     2          0.661              1.768              1.755
 Vibration     3          0.784              1.424              0.887
 Vibration     4          0.928              1.091              0.500

 Optimization completed.
    -- Stationary point found.
 Normal termination of Gaussian 16 at Fri Sep 29 15:14:46 2023.
 Gaussian 16:  ES64L-G16RevB.01 20-Dec-2017

 ---------------------------------
 # rohf/gen geom=check guess=check
 ---------------------------------

 ------------------------------
 1-cyanovinyl, ROHF/cc-pVTZ-F12
 ------------------------------
 Structure from the checkpoint file:  "ch2ccn.chk"
 Charge =  0 Multiplicity = 2

                         Standard orientation:
 ---------------------------------------------------------------------
 Center     Atomic      Atomic             Coordinates (Angstroms)
 Number     Number       Type             X           Y           Z
 ---------------------------------------------------------------------
      1          6           0        0.533370    1.724711   -0.000000
      2          6           0       -0.000000    0.539731   -0.000000
      3          6           0       -0.223847   -0.775007    0.000000
      4          7           0       -0.485323   -1.918450    0.000000
      5          1           0       -0.072430    2.625973   -0.000000
      6          1           0        1.612552    1.866564   -0.000000
 ---------------------------------------------------------------------

 SCF Done:  E(ROHF) =  -169.174875394     A.U. after   19 cycles

 The electronic state is 2-A'.
 Alpha  occ. eigenvalues --  -15.59604 -11.30214 -11.30056 -11.29555  -1.22935
 Alpha  occ. eigenvalues --   -1.08837  -0.92783  -0.70949  -0.64263  -0.57870
 Alpha  occ. eigenvalues --   -0.53682  -0.50087  -0.40551  -0.11063
 Alpha virt. eigenvalues --    0.03856   0.04818   0.05666   0.05870   0.07618
 Alpha virt. eigenvalues --    0.07933   0.09560   0.10478   0.12135   0.12781
 Alpha virt. eigenvalues --    0.13253   0.17859   0.18385   0.20522   0.20570

 Mulliken charges and spin densities:
               1          2
     1  C   -0.218031   0.016567
     2  C    0.145911   0.770395
     3  C    0.110063   0.030746
     4  N   -0.392677   0.139114
     5  H    0.185462   0.018798
     6  H    0.169272   0.024380
 Sum of Mulliken charges =  -0.00000   1.00000

 Dipole moment (field-independent basis, Debye):
    X=              1.2516    Y=              4.1879    Z=             -0.0000  Tot=              4.3709
 Quadrupole moment (field-independent basis, Debye-Ang):
   XX=            -22.2838   YY=            -25.4854   ZZ=            -24.3615
   XY=             -0.4537   XZ=             -0.0000   YZ=             -0.0000

 Normal termination of Gaussian 16 at Fri Sep 29 15:16:04 2023.
