 Gaussian 16, Revision B.01,

 ---------------------------------------
 # b3lyp/gen opt freq CPHF(Grid=OneStep)
 ---------------------------------------

 ----------------------------------------
 1,1,1,2-tetrachloroethane, B3LYP/pcseg-2
 ----------------------------------------
 Symbolic Z-matrix:
 Charge =  0 Multiplicity = 1

 SCF Done:  E(RB3LYP) =  -1918.37941383     A.U. after   13 cycles
 Optimization completed.
    -- Stationary point found.
 Normal termination of Gaussian 16 at Sun Oct  1 05:03:30 2023.

 ------------------------------------------------------------------
 #N Geom=AllCheck Guess=TCheck SCRF=Check GenChk RB3LYP/ChkBas Freq
 ------------------------------------------------------------------

 Structure from the checkpoint file:  "ch2clccl3.chk"
 ----------------------------------------
 1,1,1,2-tetrachloroethane, B3LYP/pcseg-2
 ----------------------------------------
 Charge =  0 Multiplicity = 1

 SCF Done:  E(RB3LYP) =  -1918.37941383     A.U. after    1 cycles

  Exact polarizability:  66.499   8.389  77.326  -0.000  -0.000  67.705
 Approx polarizability:  93.823  10.526 124.833  -0.000   0.000 108.318

                      1                      2                      3
                     A"                     A'                     A'
 Frequencies --    106.1314               150.6321               236.9265
 Red. masses --      8.9746                30.6947                26.0825
 Frc consts  --      0.0596                 0.4103                 0.8626
 IR Inten    --      1.1261                 0.6324                 0.0109

                      4                      5                      6
                     A"                     A'                     A"
 Frequencies --    238.6694               302.9894               331.3823
 Red. masses --      7.7911                20.4415                 3.6343
 Frc consts  --      0.2615                 1.1057                 0.2351
 IR Inten    --      0.6096                 0.9406                 1.7161

                      7                      8                      9
                     A'                     A'                     A"
 Frequencies --    372.7815               541.7579               689.4397
 Red. masses --     21.5876                 7.8155                 4.4870
 Frc consts  --      1.7675                 1.3515                 1.2566
 IR Inten    --      2.5174                22.2670               109.5694

                     10                     11                     12
                     A'                     A'                     A"
 Frequencies --    719.8734               789.1848               965.0937
 Red. masses --     11.8604                 6.8149                 1.6865
 Frc consts  --      3.6213                 2.5007                 0.9255
 IR Inten    --    154.0580                29.8059                49.0402

                     13                     14                     15
                     A'                     A"                     A'
 Frequencies --   1046.6803              1225.5413              1310.0507
 Red. masses --      7.4405                 1.0923                 1.1923
 Frc consts  --      4.8027                 0.9666                 1.2056
 IR Inten    --     13.9928                12.4467                13.5120

                     16                     17                     18
                     A'                     A'                     A"
 Frequencies --   1462.3317              3104.3803              3169.8610
 Red. masses --      1.0832                 1.0560                 1.1115
 Frc consts  --      1.3647                 5.9958                 6.5802
 IR Inten    --      5.4272                 5.2397                 0.1988

 - Thermochemistry -
 -------------------
 Temperature   298.150 Kelvin.  Pressure   1.00000 Atm.
 Atom     1 has atomic number  6 and mass  12.00000

 Molecular mass:   165.89106 amu.
 Principal axes and moments of inertia in atomic units:
                           1         2         3
     Eigenvalues --   986.913631677.961421768.09969
           X            0.77249   0.00000  -0.63502
           Y            0.63502   0.00000   0.77249
           Z            0.00000   1.00000   0.00000
 This molecule is an asymmetric top.
 Rotational symmetry number  1.
 Warning -- assumption of classical behavior for rotation
           may cause significant error
 Rotational temperatures (Kelvin)      0.08776     0.05162     0.04899
 Rotational constants (GHZ):           1.82867     1.07556     1.02072
 Zero-point vibrational energy     100269.2 (Joules/Mol)
                                   23.96492 (Kcal/Mol)
 Warning -- explicit consideration of   8 degrees of freedom as
           vibrations may cause significant error
 Vibrational temperatures:    152.70   216.73   340.88   343.39   435.93
          (Kelvin)            476.79   536.35   779.47   991.95  1035.74
                             1135.46  1388.55  1505.94  1763.28  1884.87
                             2103.97  4466.51  4560.72

 Zero-point correction=                           0.038191 (Hartree/Particle)
 Thermal correction to Energy=                    0.045135
 Thermal correction to Enthalpy=                  0.046079
 Thermal correction to Gibbs Free Energy=         0.005363
 Sum of electronic and zero-point Energies=          -1918.341223
 Sum of electronic and thermal Energies=             -1918.334279
 Sum of electronic and thermal Enthalpies=           -1918.333335
 Sum of electronic and thermal Free Energies=        -1918.374051

                     E (Thermal)             CV                S
                      KCal/Mol        Cal/Mol-Kelvin    Cal/Mol-Kelvin
 Total                   28.322             22.814             85.693
 Electronic               0.000              0.000              0.000
 Translational            0.889              2.981             41.227
 Rotational               0.889              2.981             29.461
 Vibrational             26.545             16.852             15.006
 Vibration     1          0.605              1.944              3.338
 Vibration     2          0.618              1.902              2.664
 Vibration     3          0.656              1.784              1.826
 Vibration     4          0.657              1.781              1.813
 Vibration     5          0.694              1.668              1.400
 Vibration     6          0.714              1.613              1.253
 Vibration     7          0.744              1.528              1.068
 Vibration     8          0.897              1.158              0.562

 Optimization completed.
    -- Stationary point found.
 Normal termination of Gaussian 16 at Sun Oct  1 05:07:53 2023.
 Gaussian 16:  ES64L-G16RevB.01 20-Dec-2017

 ---------------------------------
 # rohf/gen geom=check guess=check
 ---------------------------------

 -------------------------------------------
 1,1,1,2-tetrachloroethane, ROHF/cc-pVTZ-F12
 -------------------------------------------
 Structure from the checkpoint file:  "ch2clccl3.chk"
 Charge =  0 Multiplicity = 1

                         Standard orientation:
 ---------------------------------------------------------------------
 Center     Atomic      Atomic             Coordinates (Angstroms)
 Number     Number       Type             X           Y           Z
 ---------------------------------------------------------------------
      1          6           0        0.269571    0.278439    0.000000
      2          6           0       -1.255558    0.373525    0.000000
      3         17           0       -2.082765   -1.211210    0.000000
      4         17           0        0.871810    1.978650    0.000000
      5         17           0        0.871810   -0.552226    1.460618
      6         17           0        0.871810   -0.552226   -1.460618
      7          1           0       -1.569680    0.908712    0.890162
      8          1           0       -1.569680    0.908712   -0.890162
 ---------------------------------------------------------------------

 SCF Done:  E(ROHF) =  -1915.00132206     A.U. after   11 cycles

 The electronic state is 1-A'.
 Alpha  occ. eigenvalues -- -104.87015-104.86709-104.86709-104.84808 -11.45347
 Alpha  occ. eigenvalues --  -11.33600 -10.59530 -10.59231 -10.59231 -10.57322
 Alpha  occ. eigenvalues --   -8.06209  -8.06038  -8.06037  -8.05916  -8.05915
 Alpha  occ. eigenvalues --   -8.05739  -8.05739  -8.05736  -8.05736  -8.04017
 Alpha  occ. eigenvalues --   -8.03857  -8.03850  -1.25649  -1.14777  -1.11626
 Alpha  occ. eigenvalues --   -1.11606  -0.98055  -0.81259  -0.68949  -0.66362
 Alpha  occ. eigenvalues --   -0.64105  -0.59651  -0.56631  -0.50769  -0.50409
 Alpha  occ. eigenvalues --   -0.48588  -0.46944  -0.46827  -0.45944  -0.45589
 Alpha  occ. eigenvalues --   -0.45241
 Alpha virt. eigenvalues --    0.04060   0.05777   0.06044   0.06495   0.08000
 Alpha virt. eigenvalues --    0.08007   0.09240   0.10737   0.11029   0.11202
 Alpha virt. eigenvalues --    0.12275   0.13357   0.13564   0.14235   0.14616

 Mulliken charges and spin densities:
               1          2
     1  C   -0.186044   0.000000
     2  C   -0.193115   0.000000
     3  Cl  -0.053398   0.000000
     4  Cl   0.023662   0.000000
     5  Cl   0.039505   0.000000
     6  Cl   0.039505   0.000000
     7  H    0.164942   0.000000
     8  H    0.164942   0.000000
 Sum of Mulliken charges =  -0.00000   0.00000

 Dipole moment (field-independent basis, Debye):
    X=             -0.7428    Y=              1.3410    Z=             -0.0000  Tot=              1.5330
 Quadrupole moment (field-independent basis, Debye-Ang):
   XX=            -63.9781   YY=            -62.9429   ZZ=            -62.3145
   XY=             -3.1154   XZ=             -0.0000   YZ=             -0.0000

 Normal termination of Gaussian 16 at Sun Oct  1 05:10:36 2023.
