 Gaussian 16, Revision B.01,

 ---------------------------------------
 # b3lyp/gen opt freq CPHF(Grid=OneStep)
 ---------------------------------------

 ------------------------
 propargyl, B3LYP/pcseg-2
 ------------------------
 Symbolic Z-matrix:
 Charge =  0 Multiplicity = 2

 SCF Done:  E(UB3LYP) =  -116.054039679     A.U. after   16 cycles
 Optimization completed.
    -- Stationary point found.
 Normal termination of Gaussian 16 at Fri Sep 29 06:39:47 2023.

 ------------------------------------------------------------------
 #N Geom=AllCheck Guess=TCheck SCRF=Check GenChk UB3LYP/ChkBas Freq
 ------------------------------------------------------------------

 Structure from the checkpoint file:  "ch2cch.chk"
 ------------------------
 propargyl, B3LYP/pcseg-2
 ------------------------
 Charge =  0 Multiplicity = 2

 SCF Done:  E(UB3LYP) =  -116.054039679     A.U. after    1 cycles

  Exact polarizability:  21.134   0.000  22.621  -0.000   0.000  59.843
 Approx polarizability:  27.225   0.000  29.320  -0.000  -0.000  98.248

                      1                      2                      3
                     B2                     B1                     B1
 Frequencies --    357.1446               409.8307               481.1491
 Red. masses --      2.7553                 3.3845                 1.3203
 Frc consts  --      0.2071                 0.3349                 0.1801
 IR Inten    --      7.2140                14.6604                48.5759

                      4                      5                      6
                     B2                     B1                     B2
 Frequencies --    640.1862               699.5566              1033.6927
 Red. masses --      1.2407                 1.3703                 1.4519
 Frc consts  --      0.2996                 0.3951                 0.9140
 IR Inten    --     56.5604                49.2201                 0.8077

                      7                      8                      9
                     A1                     A1                     A1
 Frequencies --   1090.7179              1460.9181              2008.2751
 Red. masses --      3.7810                 1.2036                 6.8533
 Frc consts  --      2.6502                 1.5135                16.2853
 IR Inten    --      1.6325                 1.3852                 0.3971

                     10                     11                     12
                     A1                     B2                     A1
 Frequencies --   3146.8483              3235.9385              3463.3699
 Red. masses --      1.0509                 1.1173                 1.1361
 Frc consts  --      6.1316                 6.8931                 8.0293
 IR Inten    --      1.8350                 0.5006                61.6243

 - Thermochemistry -
 -------------------
 Temperature   298.150 Kelvin.  Pressure   1.00000 Atm.
 Atom     1 has atomic number  6 and mass  12.00000

 Molecular mass:    39.02348 amu.
 Principal axes and moments of inertia in atomic units:
                           1         2         3
     Eigenvalues --     6.19096 187.75221 193.94318
           X            0.00000   0.00000   1.00000
           Y            0.00000   1.00000   0.00000
           Z            1.00000   0.00000   0.00000
 This molecule is an asymmetric top.
 Rotational symmetry number  2.
 Rotational temperatures (Kelvin)     13.99038     0.46132     0.44659
 Rotational constants (GHZ):         291.51214     9.61236     9.30552
 Zero-point vibrational energy     107829.2 (Joules/Mol)
                                   25.77179 (Kcal/Mol)
 Warning -- explicit consideration of   3 degrees of freedom as
           vibrations may cause significant error
 Vibrational temperatures:    513.85   589.66   692.27   921.09  1006.51
          (Kelvin)           1487.25  1569.30  2101.94  2889.46  4527.61
                             4655.79  4983.02

 Zero-point correction=                           0.041070 (Hartree/Particle)
 Thermal correction to Energy=                    0.045111
 Thermal correction to Enthalpy=                  0.046055
 Thermal correction to Gibbs Free Energy=         0.017269
 Sum of electronic and zero-point Energies=           -116.012970
 Sum of electronic and thermal Energies=              -116.008929
 Sum of electronic and thermal Enthalpies=            -116.007985
 Sum of electronic and thermal Free Energies=         -116.036771

                     E (Thermal)             CV                S
                      KCal/Mol        Cal/Mol-Kelvin    Cal/Mol-Kelvin
 Total                   28.307             12.768             60.585
 Electronic               0.000              0.000              1.377
 Translational            0.889              2.981             36.913
 Rotational               0.889              2.981             18.672
 Vibrational             26.530              6.807              3.622
 Vibration     1          0.732              1.561              1.135
 Vibration     2          0.774              1.449              0.927
 Vibration     3          0.837              1.292              0.707

 Optimization completed.
    -- Stationary point found.
 Normal termination of Gaussian 16 at Fri Sep 29 06:41:12 2023.
 Gaussian 16:  ES64L-G16RevB.01 20-Dec-2017

 ---------------------------------
 # rohf/gen geom=check guess=check
 ---------------------------------

 ---------------------------
 propargyl, ROHF/cc-pVTZ-F12
 ---------------------------
 Structure from the checkpoint file:  "ch2cch.chk"
 Charge =  0 Multiplicity = 2

                         Standard orientation:
 ---------------------------------------------------------------------
 Center     Atomic      Atomic             Coordinates (Angstroms)
 Number     Number       Type             X           Y           Z
 ---------------------------------------------------------------------
      1          6           0        0.000000   -0.000000   -1.248788
      2          6           0        0.000000    0.000000    0.115231
      3          6           0        0.000000    0.000000    1.335304
      4          1           0        0.000000    0.927412   -1.803449
      5          1           0       -0.000000   -0.927412   -1.803449
      6          1           0        0.000000    0.000000    2.396415
 ---------------------------------------------------------------------

 SCF Done:  E(ROHF) =  -115.283536552     A.U. after   16 cycles

 The electronic state is 2-B1.
 Alpha  occ. eigenvalues --  -11.25463 -11.24384 -11.23577  -1.05957  -0.93434
 Alpha  occ. eigenvalues --   -0.72659  -0.65127  -0.61711  -0.42664  -0.39044
 Alpha  occ. eigenvalues --   -0.08699
 Alpha virt. eigenvalues --    0.05026   0.05556   0.06799   0.07613   0.08720
 Alpha virt. eigenvalues --    0.09586   0.10515   0.12537   0.13483   0.14063
 Alpha virt. eigenvalues --    0.19075   0.19121   0.20398   0.20854   0.24352

 Mulliken charges and spin densities:
               1          2
     1  C   -0.236708   0.765823
     2  C   -0.042707   0.018716
     3  C   -0.284907   0.174890
     4  H    0.161047   0.018653
     5  H    0.161047   0.018653
     6  H    0.242228   0.003265
 Sum of Mulliken charges =  -0.00000   1.00000

 Dipole moment (field-independent basis, Debye):
    X=             -0.0000    Y=             -0.0000    Z=             -0.3994  Tot=              0.3994
 Quadrupole moment (field-independent basis, Debye-Ang):
   XX=            -20.6346   YY=            -18.7755   ZZ=            -12.5650
   XY=              0.0000   XZ=              0.0000   YZ=              0.0000

 Normal termination of Gaussian 16 at Fri Sep 29 06:41:25 2023.
