 Gaussian 16, Revision B.01,

 ---------------------------------------
 # b3lyp/gen opt freq CPHF(Grid=OneStep)
 ---------------------------------------

 ---------------------------
 propadienone, B3LYP/pcseg-2
 ---------------------------
 Symbolic Z-matrix:
 Charge =  0 Multiplicity = 1

 SCF Done:  E(RB3LYP) =  -190.739000405     A.U. after   14 cycles
 Optimization completed.
    -- Stationary point found.
 Normal termination of Gaussian 16 at Sat Sep 30 01:10:39 2023.

 ------------------------------------------------------------------
 #N Geom=AllCheck Guess=TCheck SCRF=Check GenChk RB3LYP/ChkBas Freq
 ------------------------------------------------------------------

 Structure from the checkpoint file:  "ch2cco.chk"
 ---------------------------
 propadienone, B3LYP/pcseg-2
 ---------------------------
 Charge =  0 Multiplicity = 1

 SCF Done:  E(RB3LYP) =  -190.739000405     A.U. after    1 cycles

  Exact polarizability:  35.122  17.639  64.481   0.000   0.000  20.678
 Approx polarizability:  53.975  39.538 128.269   0.000   0.000  28.280

                      1                      2                      3
                     A'                     A"                     A'
 Frequencies --    137.0180               261.0395               492.9982
 Red. masses --      3.7081                 2.4614                12.2311
 Frc consts  --      0.0410                 0.0988                 1.7515
 IR Inten    --     21.8811                 0.8242                12.8367

                      4                      5                      6
                     A"                     A'                     A"
 Frequencies --    690.4790               946.3568              1032.2193
 Red. masses --      5.2170                 5.3805                 1.3300
 Frc consts  --      1.4655                 2.8391                 0.8349
 IR Inten    --     18.3657                 3.8481                23.5497

                      7                      8                      9
                     A'                     A'                     A'
 Frequencies --   1075.9699              1488.8257              1770.0338
 Red. masses --      1.3544                 1.1387                 9.0683
 Frc consts  --      0.9238                 1.4872                16.7393
 IR Inten    --     14.4497                 1.3647                16.4266

                     10                     11                     12
                     A'                     A'                     A'
 Frequencies --   2238.0641              3078.7803              3151.3447
 Red. masses --     12.2337                 1.0569                 1.1144
 Frc consts  --     36.1038                 5.9025                 6.5207
 IR Inten    --   1003.2477                29.9133                 7.6531

 - Thermochemistry -
 -------------------
 Temperature   298.150 Kelvin.  Pressure   1.00000 Atm.
 Atom     1 has atomic number  6 and mass  12.00000

 Molecular mass:    54.01056 amu.
 Principal axes and moments of inertia in atomic units:
                           1         2         3
     Eigenvalues --     9.69020 416.71678 426.40699
           X            0.41868   0.90813   0.00000
           Y            0.90813  -0.41868   0.00000
           Z            0.00000   0.00000   1.00000
 This molecule is an asymmetric top.
 Rotational symmetry number  1.
 Rotational temperatures (Kelvin)      8.93830     0.20785     0.20313
 Rotational constants (GHZ):         186.24391     4.33086     4.23244
 Zero-point vibrational energy      97873.2 (Joules/Mol)
                                   23.39227 (Kcal/Mol)
 Warning -- explicit consideration of   3 degrees of freedom as
           vibrations may cause significant error
 Vibrational temperatures:    197.14   375.58   709.31   993.45  1361.60
          (Kelvin)           1485.13  1548.08  2142.09  2546.68  3220.08
                             4429.68  4534.08

 Zero-point correction=                           0.037278 (Hartree/Particle)
 Thermal correction to Energy=                    0.041706
 Thermal correction to Enthalpy=                  0.042650
 Thermal correction to Gibbs Free Energy=         0.011420
 Sum of electronic and zero-point Energies=           -190.701722
 Sum of electronic and thermal Energies=              -190.697295
 Sum of electronic and thermal Enthalpies=            -190.696350
 Sum of electronic and thermal Free Energies=         -190.727580

                     E (Thermal)             CV                S
                      KCal/Mol        Cal/Mol-Kelvin    Cal/Mol-Kelvin
 Total                   26.171             12.930             65.729
 Electronic               0.000              0.000              0.000
 Translational            0.889              2.981             37.882
 Rotational               0.889              2.981             22.070
 Vibrational             24.393              6.969              5.777
 Vibration     1          0.614              1.916              2.845
 Vibration     2          0.669              1.744              1.655
 Vibration     3          0.849              1.266              0.676

 Optimization completed.
    -- Stationary point found.
 Normal termination of Gaussian 16 at Sat Sep 30 01:11:54 2023.
 Gaussian 16:  ES64L-G16RevB.01 20-Dec-2017

 ---------------------------------
 # rohf/gen geom=check guess=check
 ---------------------------------

 ------------------------------
 propadienone, ROHF/cc-pVTZ-F12
 ------------------------------
 Structure from the checkpoint file:  "ch2cco.chk"
 Charge =  0 Multiplicity = 1

                         Standard orientation:
 ---------------------------------------------------------------------
 Center     Atomic      Atomic             Coordinates (Angstroms)
 Number     Number       Type             X           Y           Z
 ---------------------------------------------------------------------
      1          6           0        0.865298    1.615347    0.000000
      2          6           0       -0.000000    0.619966    0.000000
      3          6           0       -0.297457   -0.633139   -0.000000
      4          8           0       -0.736064   -1.715252   -0.000000
      5          1           0        1.941565    1.457764    0.000000
      6          1           0        0.539898    2.651213    0.000000
 ---------------------------------------------------------------------

 SCF Done:  E(ROHF) =  -189.619218141     A.U. after   13 cycles

 The electronic state is 1-A'.
 Alpha  occ. eigenvalues --  -20.62014 -11.38149 -11.30142 -11.24588  -1.46306
 Alpha  occ. eigenvalues --   -1.09434  -0.94550  -0.73647  -0.69070  -0.65612
 Alpha  occ. eigenvalues --   -0.61682  -0.61173  -0.41505  -0.35721
 Alpha virt. eigenvalues --    0.03225   0.04068   0.05600   0.06253   0.07198
 Alpha virt. eigenvalues --    0.08087   0.09304   0.10305   0.12369   0.12399
 Alpha virt. eigenvalues --    0.12588   0.17915   0.18042   0.20125   0.21663

 Mulliken charges and spin densities:
               1          2
     1  C   -0.221199   0.000000
     2  C   -0.120944   0.000000
     3  C    0.462826   0.000000
     4  O   -0.458364   0.000000
     5  H    0.156878   0.000000
     6  H    0.180802   0.000000
 Sum of Mulliken charges =  -0.00000   0.00000

 Dipole moment (field-independent basis, Debye):
    X=              1.9877    Y=              2.3880    Z=              0.0000  Tot=              3.1070
 Quadrupole moment (field-independent basis, Debye-Ang):
   XX=            -22.2968   YY=            -23.0122   ZZ=            -23.3258
   XY=              0.8312   XZ=              0.0000   YZ=             -0.0000

 Normal termination of Gaussian 16 at Sat Sep 30 01:12:48 2023.
