 Gaussian 16, Revision B.01,

 ---------------------------------------
 # b3lyp/gen opt freq CPHF(Grid=OneStep)
 ---------------------------------------

 -----------------------------
 2-hydroxyethyl, B3LYP/pcseg-2
 -----------------------------
 Symbolic Z-matrix:
 Charge =  0 Multiplicity = 2

 SCF Done:  E(UB3LYP) =  -154.440821901     A.U. after   14 cycles
 Optimization completed.
    -- Stationary point found.
 Normal termination of Gaussian 16 at Sat Sep 30 23:05:32 2023.

 ------------------------------------------------------------------
 #N Geom=AllCheck Guess=TCheck SCRF=Check GenChk UB3LYP/ChkBas Freq
 ------------------------------------------------------------------

 Structure from the checkpoint file:  "ch2ch2oh.chk"
 -----------------------------
 2-hydroxyethyl, B3LYP/pcseg-2
 -----------------------------
 Charge =  0 Multiplicity = 2

 SCF Done:  E(UB3LYP) =  -154.440821901     A.U. after    1 cycles

  Exact polarizability:  34.628   0.677  30.790   0.052   0.303  27.062
 Approx polarizability:  42.332  -0.053  39.830   0.601   0.827  36.464

                      1                      2                      3
                      A                      A                      A
 Frequencies --    183.6888               324.5566               426.7937
 Red. masses --      1.0773                 1.0933                 2.2629
 Frc consts  --      0.0214                 0.0679                 0.2429
 IR Inten    --      2.9863               110.4971                16.3234

                      4                      5                      6
                      A                      A                      A
 Frequencies --    550.8084               827.4279               948.1129
 Red. masses --      1.3622                 1.3367                 2.8411
 Frc consts  --      0.2435                 0.5392                 1.5047
 IR Inten    --     51.1455                 1.1243                63.7756

                      7                      8                      9
                      A                      A                      A
 Frequencies --   1079.6177              1120.0565              1179.9938
 Red. masses --      3.7646                 1.9096                 1.0785
 Frc consts  --      2.5853                 1.4114                 0.8848
 IR Inten    --     50.2230                 0.9332                26.3440

                     10                     11                     12
                      A                      A                      A
 Frequencies --   1357.8286              1396.3274              1454.0672
 Red. masses --      1.1935                 1.2250                 1.2080
 Frc consts  --      1.2965                 1.4073                 1.5048
 IR Inten    --      7.1369                30.4887                 5.6633

                     13                     14                     15
                      A                      A                      A
 Frequencies --   1483.1666              2972.4993              2991.9824
 Red. masses --      1.0728                 1.0555                 1.1025
 Frc consts  --      1.3905                 5.4948                 5.8151
 IR Inten    --      2.5061                38.9701                35.7792

                     16                     17                     18
                      A                      A                      A
 Frequencies --   3143.8258              3251.0496              3811.8137
 Red. masses --      1.0507                 1.1191                 1.0663
 Frc consts  --      6.1187                 6.9686                 9.1287
 IR Inten    --      6.6301                 8.4667                22.5242

 - Thermochemistry -
 -------------------
 Temperature   298.150 Kelvin.  Pressure   1.00000 Atm.
 Atom     1 has atomic number  6 and mass  12.00000

 Molecular mass:    45.03404 amu.
 Principal axes and moments of inertia in atomic units:
                           1         2         3
     Eigenvalues --    46.69276 183.06055 210.87877
           X            0.99990   0.01030  -0.00955
           Y           -0.01035   0.99993  -0.00490
           Z            0.00950   0.00500   0.99994
 This molecule is an asymmetric top.
 Rotational symmetry number  1.
 Rotational temperatures (Kelvin)      1.85498     0.47314     0.41073
 Rotational constants (GHZ):          38.65141     9.85871     8.55819
 Zero-point vibrational energy     170489.5 (Joules/Mol)
                                   40.74797 (Kcal/Mol)
 Warning -- explicit consideration of   4 degrees of freedom as
           vibrations may cause significant error
 Vibrational temperatures:    264.29   466.96   614.06   792.49  1190.48
          (Kelvin)           1364.12  1553.33  1611.51  1697.75  1953.61
                             2009.00  2092.08  2133.95  4276.76  4304.80
                             4523.26  4677.54  5484.35

 Zero-point correction=                           0.064936 (Hartree/Particle)
 Thermal correction to Energy=                    0.069431
 Thermal correction to Enthalpy=                  0.070375
 Thermal correction to Gibbs Free Energy=         0.038845
 Sum of electronic and zero-point Energies=           -154.375886
 Sum of electronic and thermal Energies=              -154.371391
 Sum of electronic and thermal Enthalpies=            -154.370447
 Sum of electronic and thermal Free Energies=         -154.401977

                     E (Thermal)             CV                S
                      KCal/Mol        Cal/Mol-Kelvin    Cal/Mol-Kelvin
 Total                   43.568             14.221             66.360
 Electronic               0.000              0.000              1.377
 Translational            0.889              2.981             37.340
 Rotational               0.889              2.981             22.115
 Vibrational             41.791              8.259              5.527
 Vibration     1          0.631              1.862              2.291
 Vibration     2          0.709              1.626              1.287
 Vibration     3          0.788              1.412              0.869
 Vibration     4          0.906              1.138              0.542

 Optimization completed.
    -- Stationary point found.
 Normal termination of Gaussian 16 at Sat Sep 30 23:10:19 2023.
 Gaussian 16:  ES64L-G16RevB.01 20-Dec-2017

 ---------------------------------
 # rohf/gen geom=check guess=check
 ---------------------------------

 --------------------------------
 2-hydroxyethyl, ROHF/cc-pVTZ-F12
 --------------------------------
 Structure from the checkpoint file:  "ch2ch2oh.chk"
 Charge =  0 Multiplicity = 2

                         Standard orientation:
 ---------------------------------------------------------------------
 Center     Atomic      Atomic             Coordinates (Angstroms)
 Number     Number       Type             X           Y           Z
 ---------------------------------------------------------------------
      1          6           0       -1.234655   -0.270301   -0.008195
      2          6           0        0.005282    0.537459    0.031825
      3          8           0        1.194319   -0.255444    0.042054
      4          1           0        1.158509   -0.857204   -0.707044
      5          1           0       -1.291467   -1.190591    0.556355
      6          1           0       -2.129100    0.103627   -0.485110
      7          1           0        0.022085    1.255943   -0.796800
      8          1           0        0.061667    1.128828    0.954388
 ---------------------------------------------------------------------

 SCF Done:  E(ROHF) =  -153.515763407     A.U. after   15 cycles

 The electronic state is 2-A.
 Alpha  occ. eigenvalues --  -20.55571 -11.28162 -11.22631  -1.35697  -0.99370
 Alpha  occ. eigenvalues --   -0.82295  -0.68569  -0.62700  -0.59713  -0.55735
 Alpha  occ. eigenvalues --   -0.49836  -0.45592  -0.07372
 Alpha virt. eigenvalues --    0.05012   0.06091   0.06918   0.07263   0.09303
 Alpha virt. eigenvalues --    0.10130   0.10423   0.15748   0.16507   0.17747
 Alpha virt. eigenvalues --    0.21149   0.22636   0.24133   0.25038   0.26136

 Mulliken charges and spin densities:
               1          2
     1  C   -0.256491   0.916937
     2  C    0.101064   0.016281
     3  O   -0.664113   0.001679
     4  H    0.378066   0.003076
     5  H    0.136630   0.019164
     6  H    0.126045   0.021802
     7  H    0.090721   0.002989
     8  H    0.088079   0.018072
 Sum of Mulliken charges =  -0.00000   1.00000

 Dipole moment (field-independent basis, Debye):
    X=             -1.4348    Y=              0.0234    Z=             -1.0426  Tot=              1.7738
 Quadrupole moment (field-independent basis, Debye-Ang):
   XX=            -21.7366   YY=            -18.0006   ZZ=            -18.7079
   XY=             -0.6780   XZ=             -1.4352   YZ=              0.8387

 Normal termination of Gaussian 16 at Sat Sep 30 23:11:26 2023.
