 Gaussian 16, Revision B.01,
 Gaussian 16:  ES64L-G16RevB.01 20-Dec-2017

 --------------------
 # b3lyp/gen opt freq
 --------------------

 ---------------------------------
 1,2-dichloroethane, B3LYP/pcseg-2
 ---------------------------------
 Symbolic Z-matrix:
 Charge =  0 Multiplicity = 1

 SCF Done:  E(RB3LYP) =  -999.134274423     A.U. after   11 cycles
 SCF Done:  E(RB3LYP) =  -999.134279847     A.U. after    7 cycles
 Optimization completed.
    -- Stationary point found.
 Normal termination of Gaussian 16 at Thu Jun 16 16:09:38 2022.

 ------------------------------------------------------------------
 #N Geom=AllCheck Guess=TCheck SCRF=Check GenChk RB3LYP/ChkBas Freq
 ------------------------------------------------------------------

 Structure from the checkpoint file:  "/wrk/irikura/Gau-30544.chk"
 ---------------------------------
 1,2-dichloroethane, B3LYP/pcseg-2
 ---------------------------------
 Charge =  0 Multiplicity = 1

                         Standard orientation:
 ---------------------------------------------------------------------
 Center     Atomic      Atomic             Coordinates (Angstroms)
 Number     Number       Type             X           Y           Z
 ---------------------------------------------------------------------
      1          6           0        0.475325    0.587726    0.000000
      2          6           0       -0.475325   -0.587726    0.000000
      3         17           0       -0.475325    2.125363    0.000000
      4         17           0        0.475325   -2.125363    0.000000
      5          1           0        1.099705    0.597185    0.887561
      6          1           0        1.099705    0.597185   -0.887561
      7          1           0       -1.099705   -0.597185    0.887561
      8          1           0       -1.099705   -0.597185   -0.887561
 ---------------------------------------------------------------------

 SCF Done:  E(RB3LYP) =  -999.134279847     A.U. after    1 cycles

 The electronic state is 1-AG.
 Alpha  occ. eigenvalues -- -101.51431-101.51431 -10.25215 -10.25189  -9.45942
 Alpha  occ. eigenvalues --   -9.45942  -7.22101  -7.22101  -7.21226  -7.21226
 Alpha  occ. eigenvalues --   -7.21204  -7.21204  -0.89158  -0.85065  -0.73356
 Alpha  occ. eigenvalues --   -0.63875  -0.51506  -0.46450  -0.45521  -0.42340
 Alpha  occ. eigenvalues --   -0.39984  -0.32635  -0.31678  -0.31330  -0.31182
 Alpha virt. eigenvalues --   -0.01147  -0.00032   0.03846   0.04584   0.04834
 Alpha virt. eigenvalues --    0.08106   0.10050   0.13401   0.17310   0.20260
 Alpha virt. eigenvalues --    0.20544   0.22068   0.25715   0.26463   0.28784

 Mulliken charges:
               1
     1  C    0.005173
     2  C    0.005173
     3  Cl  -0.159637
     4  Cl  -0.159637
     5  H    0.077232
     6  H    0.077232
     7  H    0.077232
     8  H    0.077232
 Sum of Mulliken charges =   0.00000

 Dipole moment (field-independent basis, Debye):
    X=              0.0000    Y=              0.0000    Z=              0.0000  Tot=              0.0000
 Quadrupole moment (field-independent basis, Debye-Ang):
   XX=            -37.6470   YY=            -45.5742   ZZ=            -37.8825
   XY=              2.0878   XZ=              0.0000   YZ=              0.0000

  Exact polarizability:  42.900  -9.383  66.977   0.000   0.000  36.277
 Approx polarizability:  64.292 -16.536  90.628  -0.000  -0.000  54.161

                      1                      2                      3
                     AU                     BU                     AG
 Frequencies --    114.4630               214.0731               296.3881
 Red. masses --      4.0526                 5.2763                16.9349
 Frc consts  --      0.0313                 0.1425                 0.8765
 IR Inten    --      6.9692                 9.6110                 0.0000

                      4                      5                      6
                     BU                     AG                     AU
 Frequencies --    702.5283               747.6683               779.4225
 Red. masses --      8.8478                 5.2960                 1.1082
 Frc consts  --      2.5728                 1.7443                 0.3967
 IR Inten    --    102.9167                 0.0000                 2.3916

                      7                      8                      9
                     BG                     AG                     AU
 Frequencies --   1005.3067              1058.7231              1138.5920
 Red. masses --      1.3580                 4.2511                 1.0425
 Frc consts  --      0.8086                 2.8075                 0.7963
 IR Inten    --      0.0000                 0.0000                 1.2462

                     10                     11                     12
                     BU                     BG                     AG
 Frequencies --   1258.4442              1296.8814              1332.3659
 Red. masses --      1.1444                 1.1649                 1.2325
 Frc consts  --      1.0679                 1.1543                 1.2891
 IR Inten    --     38.2374                 0.0000                 0.0000

                     13                     14                     15
                     AG                     BU                     AG
 Frequencies --   1491.8404              1496.1076              3097.1940
 Red. masses --      1.0967                 1.0943                 1.0568
 Frc consts  --      1.4380                 1.4432                 5.9728
 IR Inten    --      0.0000                 5.8993                 0.0000

                     16                     17                     18
                     BU                     BG                     AU
 Frequencies --   3105.5826              3150.3047              3173.9059
 Red. masses --      1.0558                 1.1113                 1.1128
 Frc consts  --      5.9998                 6.4980                 6.6048
 IR Inten    --     14.2985                 0.0000                 2.5877

 - Thermochemistry -
 -------------------
 Temperature   298.150 Kelvin.  Pressure   1.00000 Atm.
 Atom     1 has atomic number  6 and mass  12.00000

 Molecular mass:    97.96901 amu.
 Principal axes and moments of inertia in atomic units:
                           1         2         3
     Eigenvalues --    61.475971217.316591256.11122
           X           -0.19303   0.98119   0.00000
           Y            0.98119   0.19303   0.00000
           Z           -0.00000   0.00000   1.00000
 This molecule is an asymmetric top.
 Rotational symmetry number  2.
 Rotational temperatures (Kelvin)      1.40891     0.07115     0.06895
 Rotational constants (GHZ):          29.35686     1.48256     1.43677
 Zero-point vibrational energy     152283.4 (Joules/Mol)
                                   36.39660 (Kcal/Mol)
 Warning -- explicit consideration of   3 degrees of freedom as
           vibrations may cause significant error
 Vibrational temperatures:    164.69   308.00   426.44  1010.78  1075.73
          (Kelvin)           1121.42  1446.41  1523.27  1638.18  1810.62
                             1865.92  1916.98  2146.43  2152.57  4456.17
                             4468.24  4532.59  4566.54

 Zero-point correction=                           0.058002 (Hartree/Particle)
 Thermal correction to Energy=                    0.062928
 Thermal correction to Enthalpy=                  0.063872
 Thermal correction to Gibbs Free Energy=         0.029629
 Sum of electronic and zero-point Energies=           -999.076278
 Sum of electronic and thermal Energies=              -999.071352
 Sum of electronic and thermal Enthalpies=            -999.070408
 Sum of electronic and thermal Free Energies=         -999.104651

                     E (Thermal)             CV                S
                      KCal/Mol        Cal/Mol-Kelvin    Cal/Mol-Kelvin
 Total                   39.488             15.192             72.070
 Electronic               0.000              0.000              0.000
 Translational            0.889              2.981             39.657
 Rotational               0.889              2.981             24.667
 Vibrational             37.710              9.231              7.747
 Vibration     1          0.607              1.937              3.192
 Vibration     2          0.644              1.820              2.009
 Vibration     3          0.690              1.680              1.437

 Optimization completed.
    -- Stationary point found.
 Normal termination of Gaussian 16 at Thu Jun 16 16:10:06 2022.
