 Gaussian 16, Revision B.01,

 ---------------------------------------
 # b3lyp/gen opt freq CPHF(Grid=OneStep)
 ---------------------------------------

 ------------------------
 biallenyl, B3LYP/pcseg-2
 ------------------------
 Symbolic Z-matrix:
 Charge =  0 Multiplicity = 1

 SCF Done:  E(RB3LYP) =  -232.223995243     A.U. after   13 cycles
 Optimization completed.
    -- Stationary point found.
 Normal termination of Gaussian 16 at Sat Sep 30 01:13:57 2023.

 ------------------------------------------------------------------
 #N Geom=AllCheck Guess=TCheck SCRF=Check GenChk RB3LYP/ChkBas Freq
 ------------------------------------------------------------------

 Structure from the checkpoint file:  "ch2cchchcch2.chk"
 ------------------------
 biallenyl, B3LYP/pcseg-2
 ------------------------
 Charge =  0 Multiplicity = 1

 SCF Done:  E(RB3LYP) =  -232.223995243     A.U. after    1 cycles

  Exact polarizability:  65.763 -39.125 145.214   0.000  -0.000  44.544
 Approx polarizability:  98.955 -63.070 206.108  -0.000   0.000  63.031

                      1                      2                      3
                     AU                     BU                     AG
 Frequencies --     82.6350               123.7798               235.3205
 Red. masses --      3.1476                 3.7234                 4.2481
 Frc consts  --      0.0127                 0.0336                 0.1386
 IR Inten    --      0.6410                 1.0565                 0.0000

                      4                      5                      6
                     BG                     AU                     AU
 Frequencies --    317.6377               355.2089               491.3353
 Red. masses --      2.3073                 2.2013                 1.2157
 Frc consts  --      0.1372                 0.1636                 0.1729
 IR Inten    --      0.0000                14.8700                 2.4875

                      7                      8                      9
                     AG                     BU                     BG
 Frequencies --    538.9571               551.2039               680.8522
 Red. masses --      6.7125                 4.5260                 1.5961
 Frc consts  --      1.1488                 0.8102                 0.4359
 IR Inten    --      0.0000                36.3847                 0.0000

                     10                     11                     12
                     AG                     BU                     BG
 Frequencies --    890.9854               891.5683               898.3691
 Red. masses --      1.3177                 1.3168                 1.2740
 Frc consts  --      0.6163                 0.6167                 0.6058
 IR Inten    --      0.0000               104.2251                 0.0000

                     13                     14                     15
                     AU                     AU                     BG
 Frequencies --    926.9820              1015.7459              1017.5853
 Red. masses --      1.1075                 1.4917                 1.4955
 Frc consts  --      0.5607                 0.9068                 0.9124
 IR Inten    --     36.9761                 0.9907                 0.0000

                     16                     17                     18
                     AG                     BU                     AG
 Frequencies --   1036.7035              1111.7798              1170.0836
 Red. masses --      5.0971                 2.2820                 1.6004
 Frc consts  --      3.2276                 1.6619                 1.2909
 IR Inten    --      0.0000                 3.2603                 0.0000

                     19                     20                     21
                     BU                     AG                     BU
 Frequencies --   1274.9804              1399.5838              1462.2789
 Red. masses --      1.3803                 1.2664                 1.2842
 Frc consts  --      1.3220                 1.4616                 1.6179
 IR Inten    --     16.7113                 0.0000                 0.7809

                     22                     23                     24
                     AG                     AG                     BU
 Frequencies --   1502.7134              2013.8845              2039.6769
 Red. masses --      1.9215                10.2960                10.2200
 Frc consts  --      2.5564                24.6029                25.0509
 IR Inten    --      0.0000                 0.0000               142.8332

                     25                     26                     27
                     AG                     BU                     AG
 Frequencies --   3111.2892              3111.6040              3134.4262
 Red. masses --      1.0568                 1.0575                 1.0867
 Frc consts  --      6.0272                 6.0324                 6.2905
 IR Inten    --      0.0000                19.2468                 0.0000

                     28                     29                     30
                     BU                     BG                     AU
 Frequencies --   3144.4149              3179.6991              3179.7146
 Red. masses --      1.0872                 1.1144                 1.1144
 Frc consts  --      6.3332                 6.6384                 6.6383
 IR Inten    --      4.0345                 0.0000                 3.6753

 - Thermochemistry -
 -------------------
 Temperature   298.150 Kelvin.  Pressure   1.00000 Atm.
 Atom     1 has atomic number  6 and mass  12.00000

 Molecular mass:    78.04695 amu.
 Principal axes and moments of inertia in atomic units:
                           1         2         3
     Eigenvalues --    55.035511321.456201351.90244
           X           -0.26833   0.96333   0.00000
           Y            0.96333   0.26833   0.00000
           Z            0.00000   0.00000   1.00000
 This molecule is an asymmetric top.
 Rotational symmetry number  2.
 Rotational temperatures (Kelvin)      1.57378     0.06554     0.06407
 Rotational constants (GHZ):          32.79231     1.36572     1.33496
 Zero-point vibrational energy     244582.5 (Joules/Mol)
                                   58.45662 (Kcal/Mol)
 Warning -- explicit consideration of   8 degrees of freedom as
           vibrations may cause significant error
 Vibrational temperatures:    118.89   178.09   338.57   457.01   511.07
          (Kelvin)            706.92   775.44   793.06   979.59  1281.93
                             1282.77  1292.55  1333.72  1461.43  1464.08
                             1491.59  1599.60  1683.49  1834.41  2013.69
                             2103.89  2162.07  2897.53  2934.64  4476.45
                             4476.90  4509.74  4524.11  4574.88  4574.90

 Zero-point correction=                           0.093157 (Hartree/Particle)
 Thermal correction to Energy=                    0.099836
 Thermal correction to Enthalpy=                  0.100780
 Thermal correction to Gibbs Free Energy=         0.063732
 Sum of electronic and zero-point Energies=           -232.130839
 Sum of electronic and thermal Energies=              -232.124159
 Sum of electronic and thermal Enthalpies=            -232.123215
 Sum of electronic and thermal Free Energies=         -232.160263

                     E (Thermal)             CV                S
                      KCal/Mol        Cal/Mol-Kelvin    Cal/Mol-Kelvin
 Total                   62.648             23.271             77.974
 Electronic               0.000              0.000              0.000
 Translational            0.889              2.981             38.979
 Rotational               0.889              2.981             24.711
 Vibrational             60.871             17.310             14.283
 Vibration     1          0.600              1.961              3.827
 Vibration     2          0.610              1.929              3.040
 Vibration     3          0.655              1.787              1.838
 Vibration     4          0.704              1.640              1.322
 Vibration     5          0.731              1.565              1.143
 Vibration     6          0.847              1.269              0.680
 Vibration     7          0.894              1.164              0.568
 Vibration     8          0.907              1.137              0.542

 Optimization completed.
    -- Stationary point found.
 Normal termination of Gaussian 16 at Sat Sep 30 01:19:45 2023.
 Gaussian 16:  ES64L-G16RevB.01 20-Dec-2017

 ---------------------------------
 # rohf/gen geom=check guess=check
 ---------------------------------

 ---------------------------
 biallenyl, ROHF/cc-pVTZ-F12
 ---------------------------
 Structure from the checkpoint file:  "ch2cchchcch2.chk"
 Charge =  0 Multiplicity = 1

                         Standard orientation:
 ---------------------------------------------------------------------
 Center     Atomic      Atomic             Coordinates (Angstroms)
 Number     Number       Type             X           Y           Z
 ---------------------------------------------------------------------
      1          6           0        0.323381    0.656582    0.000000
      2          6           0       -0.323381   -0.656582    0.000000
      3          6           0       -0.323381    1.794766    0.000000
      4          6           0        0.323381   -1.794766    0.000000
      5          6           0       -0.963250    2.925263    0.000000
      6          6           0        0.963250   -2.925263    0.000000
      7          1           0        1.408260    0.672359    0.000000
      8          1           0       -1.408260   -0.672359    0.000000
      9          1           0       -1.241864    3.419236    0.924137
     10          1           0       -1.241864    3.419236   -0.924137
     11          1           0        1.241864   -3.419236   -0.924137
     12          1           0        1.241864   -3.419236    0.924137
 ---------------------------------------------------------------------

 SCF Done:  E(ROHF) =  -230.670705016     A.U. after   11 cycles

 The electronic state is 1-AG.
 Alpha  occ. eigenvalues --  -11.25790 -11.25789 -11.25039 -11.24960 -11.23907
 Alpha  occ. eigenvalues --  -11.23907  -1.11492  -1.06330  -0.99672  -0.92035
 Alpha  occ. eigenvalues --   -0.72785  -0.71609  -0.65620  -0.62960  -0.61228
 Alpha  occ. eigenvalues --   -0.60879  -0.57463  -0.44823  -0.39357  -0.37740
 Alpha  occ. eigenvalues --   -0.32369
 Alpha virt. eigenvalues --    0.04353   0.05009   0.05586   0.06535   0.06663
 Alpha virt. eigenvalues --    0.07560   0.08114   0.08981   0.09573   0.10360
 Alpha virt. eigenvalues --    0.10781   0.11435   0.12442   0.12660   0.14323

 Mulliken charges and spin densities:
               1          2
     1  C   -0.127115   0.000000
     2  C   -0.127115   0.000000
     3  C   -0.087320   0.000000
     4  C   -0.087320   0.000000
     5  C   -0.288622   0.000000
     6  C   -0.288622   0.000000
     7  H    0.183641   0.000000
     8  H    0.183641   0.000000
     9  H    0.159708   0.000000
    10  H    0.159708   0.000000
    11  H    0.159708   0.000000
    12  H    0.159708   0.000000
 Sum of Mulliken charges =  -0.00000   0.00000

 Dipole moment (field-independent basis, Debye):
    X=             -0.0000    Y=             -0.0000    Z=              0.0000  Tot=              0.0000
 Quadrupole moment (field-independent basis, Debye-Ang):
   XX=            -35.6756   YY=            -31.4827   ZZ=            -37.2452
   XY=             -3.8224   XZ=             -0.0000   YZ=              0.0000

 Normal termination of Gaussian 16 at Sat Sep 30 01:21:38 2023.
