 Gaussian 16, Revision B.01,

 ---------------------------------------
 # b3lyp/gen opt freq CPHF(Grid=OneStep)
 ---------------------------------------

 ---------------------------
 chloromethyl, B3LYP/pcseg-2
 ---------------------------
 Symbolic Z-matrix:
 Charge =  0 Multiplicity = 2

 SCF Done:  E(UB3LYP) =  -499.499769902     A.U. after   14 cycles
 Optimization completed.
    -- Stationary point found.
 Normal termination of Gaussian 16 at Fri Sep 29 18:51:34 2023.

 ------------------------------------------------------------------
 #N Geom=AllCheck Guess=TCheck SCRF=Check GenChk UB3LYP/ChkBas Freq
 ------------------------------------------------------------------

 Structure from the checkpoint file:  "ch2cl.chk"
 ---------------------------
 chloromethyl, B3LYP/pcseg-2
 ---------------------------
 Charge =  0 Multiplicity = 2

 SCF Done:  E(UB3LYP) =  -499.499769902     A.U. after    1 cycles

  Exact polarizability:  16.771   0.000  18.674  -0.000  -0.000  32.632
 Approx polarizability:  22.682   0.000  25.041  -0.000  -0.000  46.653

                      1                      2                      3
                     B1                     A1                     B2
 Frequencies --    217.0526               832.5637               995.1613
 Red. masses --      1.2660                 7.1426                 1.1685
 Frc consts  --      0.0351                 2.9170                 0.6818
 IR Inten    --     83.2870                36.9927                 0.3025

                      4                      5                      6
                     A1                     A1                     B2
 Frequencies --   1413.4887              3174.2189              3326.3192
 Red. masses --      1.0945                 1.0405                 1.1297
 Frc consts  --      1.2884                 6.1769                 7.3644
 IR Inten    --     10.2872                 7.1506                 0.0073

 - Thermochemistry -
 -------------------
 Temperature   298.150 Kelvin.  Pressure   1.00000 Atm.
 Atom     1 has atomic number  6 and mass  12.00000

 Molecular mass:    48.98450 amu.
 Principal axes and moments of inertia in atomic units:
                           1         2         3
     Eigenvalues --     6.52520 114.01495 120.54014
           X            0.00000   0.00000   1.00000
           Y            0.00000   1.00000   0.00000
           Z            1.00000   0.00000   0.00000
 This molecule is an asymmetric top.
 Rotational symmetry number  2.
 Rotational temperatures (Kelvin)     13.27377     0.75967     0.71855
 Rotational constants (GHZ):         276.58041    15.82899    14.97212
 Zero-point vibrational energy      59566.9 (Joules/Mol)
                                   14.23683 (Kcal/Mol)
 Warning -- explicit consideration of   1 degrees of freedom as
           vibrations may cause significant error
 Vibrational temperatures:    312.29  1197.87  1431.82  2033.70  4566.99
          (Kelvin)           4785.83

 Zero-point correction=                           0.022688 (Hartree/Particle)
 Thermal correction to Energy=                    0.026169
 Thermal correction to Enthalpy=                  0.027113
 Thermal correction to Gibbs Free Energy=        -0.000921
 Sum of electronic and zero-point Energies=           -499.477082
 Sum of electronic and thermal Energies=              -499.473601
 Sum of electronic and thermal Enthalpies=            -499.472657
 Sum of electronic and thermal Free Energies=         -499.500691

                     E (Thermal)             CV                S
                      KCal/Mol        Cal/Mol-Kelvin    Cal/Mol-Kelvin
 Total                   16.421              8.859             59.003
 Electronic               0.000              0.000              1.377
 Translational            0.889              2.981             37.591
 Rotational               0.889              2.981             17.756
 Vibrational             14.644              2.897              2.278
 Vibration     1          0.646              1.815              1.984

                           ! Non-Optimized Parameters !
 Normal termination of Gaussian 16 at Fri Sep 29 18:52:02 2023.
 Gaussian 16:  ES64L-G16RevB.01 20-Dec-2017

 ---------------------------------
 # rohf/gen geom=check guess=check
 ---------------------------------

 ------------------------------
 chloromethyl, ROHF/cc-pVTZ-F12
 ------------------------------
 Structure from the checkpoint file:  "ch2cl.chk"
 Charge =  0 Multiplicity = 2

                         Standard orientation:
 ---------------------------------------------------------------------
 Center     Atomic      Atomic             Coordinates (Angstroms)
 Number     Number       Type             X           Y           Z
 ---------------------------------------------------------------------
      1          6           0        0.000000    0.000000   -1.117634
      2         17           0        0.000000   -0.000000    0.584738
      3          1           0        0.000000    0.952117   -1.617374
      4          1           0       -0.000000   -0.952117   -1.617374
 ---------------------------------------------------------------------

 SCF Done:  E(ROHF) =  -498.517075833     A.U. after   12 cycles

 The electronic state is 2-B1.
 Alpha  occ. eigenvalues -- -104.84489 -11.28513 -10.56977  -8.03694  -8.03533
 Alpha  occ. eigenvalues --   -8.03477  -1.14364  -0.86137  -0.64163  -0.57640
 Alpha  occ. eigenvalues --   -0.48863  -0.45068  -0.08067
 Alpha virt. eigenvalues --    0.05909   0.06628   0.07155   0.08343   0.11395
 Alpha virt. eigenvalues --    0.12213   0.12461   0.19263   0.22322   0.23597
 Alpha virt. eigenvalues --    0.24311   0.36070   0.37856   0.39474   0.40890

 Mulliken charges and spin densities:
               1          2
     1  C   -0.255388   0.890733
     2  Cl  -0.028556   0.062328
     3  H    0.141972   0.023470
     4  H    0.141972   0.023470
 Sum of Mulliken charges =  -0.00000   1.00000

 Dipole moment (field-independent basis, Debye):
    X=             -0.0000    Y=              0.0000    Z=             -1.4653  Tot=              1.4653
 Quadrupole moment (field-independent basis, Debye-Ang):
   XX=            -20.6014   YY=            -18.5816   ZZ=            -17.3236
   XY=              0.0000   XZ=              0.0000   YZ=             -0.0000

 Normal termination of Gaussian 16 at Fri Sep 29 18:52:07 2023.
