 Gaussian 16, Revision B.01,
 Gaussian 16:  ES64L-G16RevB.01 20-Dec-2017

 --------------------
 # b3lyp/gen opt freq
 --------------------

 ---------------------------
 propadienone, B3LYP/pcseg-2
 ---------------------------
 Symbolic Z-matrix:
 Charge =  0 Multiplicity = 1

 SCF Done:  E(RB3LYP) =  -190.738987969     A.U. after   14 cycles
 SCF Done:  E(RB3LYP) =  -190.738990233     A.U. after    8 cycles
 SCF Done:  E(RB3LYP) =  -190.738993396     A.U. after    9 cycles
 SCF Done:  E(RB3LYP) =  -190.738995012     A.U. after    8 cycles
 SCF Done:  E(RB3LYP) =  -190.738997839     A.U. after    9 cycles
 SCF Done:  E(RB3LYP) =  -190.738999773     A.U. after    9 cycles
 SCF Done:  E(RB3LYP) =  -190.739000405     A.U. after    8 cycles
 Optimization completed.
    -- Stationary point found.
 Normal termination of Gaussian 16 at Thu Jun 16 14:37:33 2022.

 ------------------------------------------------------------------
 #N Geom=AllCheck Guess=TCheck SCRF=Check GenChk RB3LYP/ChkBas Freq
 ------------------------------------------------------------------

 Structure from the checkpoint file:  "/wrk/irikura/Gau-12198.chk"
 ---------------------------
 propadienone, B3LYP/pcseg-2
 ---------------------------
 Charge =  0 Multiplicity = 1

                         Standard orientation:
 ---------------------------------------------------------------------
 Center     Atomic      Atomic             Coordinates (Angstroms)
 Number     Number       Type             X           Y           Z
 ---------------------------------------------------------------------
      1          6           0        0.865298    1.615347   -0.000000
      2          6           0        0.000000    0.619966    0.000000
      3          6           0       -0.297457   -0.633139    0.000000
      4          8           0       -0.736064   -1.715252    0.000000
      5          1           0        1.941565    1.457764   -0.000000
      6          1           0        0.539898    2.651213   -0.000000
 ---------------------------------------------------------------------

 SCF Done:  E(RB3LYP) =  -190.739000405     A.U. after    1 cycles

 The electronic state is 1-A'.
 Alpha  occ. eigenvalues --  -19.18816 -10.29534 -10.23495 -10.19347  -1.11680
 Alpha  occ. eigenvalues --   -0.81642  -0.70705  -0.52917  -0.50472  -0.47996
 Alpha  occ. eigenvalues --   -0.45956  -0.44321  -0.32008  -0.24493
 Alpha virt. eigenvalues --   -0.11122   0.00119   0.03725   0.06452   0.07134
 Alpha virt. eigenvalues --    0.09612   0.12385   0.15278   0.16721   0.19562
 Alpha virt. eigenvalues --    0.20862   0.23685   0.24737   0.26383   0.28155

 Mulliken charges:
               1
     1  C   -0.100810
     2  C   -0.143364
     3  C    0.385688
     4  O   -0.290100
     5  H    0.068948
     6  H    0.079638
 Sum of Mulliken charges =  -0.00000

 Dipole moment (field-independent basis, Debye):
    X=              1.7087    Y=              1.9819    Z=             -0.0000  Tot=              2.6168
 Quadrupole moment (field-independent basis, Debye-Ang):
   XX=            -22.3267   YY=            -23.0098   ZZ=            -22.9530
   XY=              0.7259   XZ=              0.0000   YZ=             -0.0000

  Exact polarizability:  35.122  17.639  64.481   0.000   0.000  20.679
 Approx polarizability:  53.975  39.538 128.269  -0.000  -0.000  28.280

                      1                      2                      3
                     A'                     A"                     A'
 Frequencies --    137.0164               261.0406               492.9960
 Red. masses --      3.7081                 2.4614                12.2311
 Frc consts  --      0.0410                 0.0988                 1.7515
 IR Inten    --     21.8811                 0.8241                12.8371

                      4                      5                      6
                     A"                     A'                     A"
 Frequencies --    690.4799               946.3567              1032.2190
 Red. masses --      5.2169                 5.3805                 1.3300
 Frc consts  --      1.4654                 2.8391                 0.8349
 IR Inten    --     18.3663                 3.8482                23.5496

                      7                      8                      9
                     A'                     A'                     A'
 Frequencies --   1075.9694              1488.8263              1770.0337
 Red. masses --      1.3544                 1.1387                 9.0683
 Frc consts  --      0.9238                 1.4872                16.7393
 IR Inten    --     14.4491                 1.3648                16.4268

                     10                     11                     12
                     A'                     A'                     A'
 Frequencies --   2238.0730              3078.7811              3151.3478
 Red. masses --     12.2337                 1.0569                 1.1144
 Frc consts  --     36.1041                 5.9025                 6.5207
 IR Inten    --   1003.2595                29.9137                 7.6541

 - Thermochemistry -
 -------------------
 Temperature   298.150 Kelvin.  Pressure   1.00000 Atm.
 Atom     1 has atomic number  6 and mass  12.00000

 Molecular mass:    54.01056 amu.
 Principal axes and moments of inertia in atomic units:
                           1         2         3
     Eigenvalues --     9.69020 416.71667 426.40687
           X            0.41868   0.90813   0.00000
           Y            0.90813  -0.41868   0.00000
           Z           -0.00000  -0.00000   1.00000
 This molecule is an asymmetric top.
 Rotational symmetry number  1.
 Rotational temperatures (Kelvin)      8.93830     0.20785     0.20313
 Rotational constants (GHZ):         186.24402     4.33086     4.23244
 Zero-point vibrational energy      97873.3 (Joules/Mol)
                                   23.39228 (Kcal/Mol)
 Warning -- explicit consideration of   3 degrees of freedom as
           vibrations may cause significant error
 Vibrational temperatures:    197.14   375.58   709.31   993.45  1361.60
          (Kelvin)           1485.13  1548.08  2142.09  2546.68  3220.09
                             4429.68  4534.09

 Zero-point correction=                           0.037278 (Hartree/Particle)
 Thermal correction to Energy=                    0.041706
 Thermal correction to Enthalpy=                  0.042650
 Thermal correction to Gibbs Free Energy=         0.011420
 Sum of electronic and zero-point Energies=           -190.701722
 Sum of electronic and thermal Energies=              -190.697295
 Sum of electronic and thermal Enthalpies=            -190.696350
 Sum of electronic and thermal Free Energies=         -190.727580

                     E (Thermal)             CV                S
                      KCal/Mol        Cal/Mol-Kelvin    Cal/Mol-Kelvin
 Total                   26.171             12.930             65.729
 Electronic               0.000              0.000              0.000
 Translational            0.889              2.981             37.882
 Rotational               0.889              2.981             22.070
 Vibrational             24.393              6.969              5.777
 Vibration     1          0.614              1.916              2.845
 Vibration     2          0.669              1.744              1.655
 Vibration     3          0.849              1.266              0.676

 Optimization completed.
    -- Stationary point found.
 Normal termination of Gaussian 16 at Thu Jun 16 14:37:57 2022.
