 Gaussian 16, Revision B.01,
 Gaussian 16:  ES64L-G16RevB.01 20-Dec-2017

 --------------------
 # b3lyp/gen opt freq
 --------------------

 ------------------------------
 propargylallene, B3LYP/pcseg-2
 ------------------------------
 Symbolic Z-matrix:
 Charge =  0 Multiplicity = 1

 SCF Done:  E(RB3LYP) =  -232.209415844     A.U. after   13 cycles
 SCF Done:  E(RB3LYP) =  -232.209474850     A.U. after    9 cycles
 SCF Done:  E(RB3LYP) =  -232.208984195     A.U. after   11 cycles
 SCF Done:  E(RB3LYP) =  -232.209416016     A.U. after   10 cycles
 SCF Done:  E(RB3LYP) =  -232.209482531     A.U. after    7 cycles
 SCF Done:  E(RB3LYP) =  -232.209466171     A.U. after    9 cycles
 SCF Done:  E(RB3LYP) =  -232.209491828     A.U. after    9 cycles
 SCF Done:  E(RB3LYP) =  -232.209489991     A.U. after    8 cycles
 SCF Done:  E(RB3LYP) =  -232.209489860     A.U. after    8 cycles
 SCF Done:  E(RB3LYP) =  -232.209491930     A.U. after    8 cycles
 SCF Done:  E(RB3LYP) =  -232.209492527     A.U. after    7 cycles
 Optimization completed.
    -- Stationary point found.
 Normal termination of Gaussian 16 at Mon Jun 20 11:39:20 2022.

 ------------------------------------------------------------------
 #N Geom=AllCheck Guess=TCheck SCRF=Check GenChk RB3LYP/ChkBas Freq
 ------------------------------------------------------------------

 Structure from the checkpoint file:  "/wrk/irikura/Gau-16685.chk"
 ------------------------------
 propargylallene, B3LYP/pcseg-2
 ------------------------------
 Charge =  0 Multiplicity = 1

                         Standard orientation:
 ---------------------------------------------------------------------
 Center     Atomic      Atomic             Coordinates (Angstroms)
 Number     Number       Type             X           Y           Z
 ---------------------------------------------------------------------
      1          6           0       -2.839065   -0.437777   -0.242565
      2          6           0       -1.665863   -0.070478    0.182868
      3          6           0       -0.490683    0.295078    0.602789
      4          6           0        0.625777    0.773838   -0.307962
      5          6           0        1.855425    0.002570   -0.147966
      6          6           0        2.861165   -0.634240   -0.003162
      7          1           0       -3.650031    0.272775   -0.348782
      8          1           0       -3.047106   -1.468943   -0.502047
      9          1           0       -0.269961    0.265799    1.664698
     10          1           0        0.840163    1.825156   -0.090863
     11          1           0        0.294860    0.729799   -1.346502
     12          1           0        3.751535   -1.198531    0.119485
 ---------------------------------------------------------------------

 SCF Done:  E(RB3LYP) =  -232.209492527     A.U. after    1 cycles

 The electronic state is 1-A.
 Alpha  occ. eigenvalues --  -10.21172 -10.19401 -10.19221 -10.18309 -10.17821
 Alpha  occ. eigenvalues --  -10.16570  -0.82933  -0.77916  -0.73171  -0.67692
 Alpha  occ. eigenvalues --   -0.53753  -0.53171  -0.48568  -0.46933  -0.45253
 Alpha  occ. eigenvalues --   -0.44691  -0.41256  -0.29249  -0.28356  -0.27268
 Alpha  occ. eigenvalues --   -0.26756
 Alpha virt. eigenvalues --   -0.00942  -0.00098   0.01572   0.02884   0.03911
 Alpha virt. eigenvalues --    0.04389   0.05003   0.05839   0.07598   0.08744
 Alpha virt. eigenvalues --    0.10840   0.12669   0.14662   0.15565   0.17184

 Mulliken charges:
               1
     1  C   -0.180794
     2  C    0.021495
     3  C   -0.073782
     4  C    0.027676
     5  C    0.183448
     6  C   -0.323268
     7  H    0.066497
     8  H    0.070725
     9  H    0.059493
    10  H    0.058137
    11  H    0.055340
    12  H    0.035032
 Sum of Mulliken charges =  -0.00000

 Dipole moment (field-independent basis, Debye):
    X=             -0.4657    Y=              0.3659    Z=             -0.1203  Tot=              0.6044
 Quadrupole moment (field-independent basis, Debye-Ang):
   XX=            -32.6718   YY=            -35.1988   ZZ=            -37.0380
   XY=             -1.0670   XZ=              1.7562   YZ=             -0.0239

  Exact polarizability: 112.298   0.249  54.259  10.359   0.740  49.885
 Approx polarizability: 155.510  -2.096  81.954  22.099   2.193  72.627

                      1                      2                      3
                      A                      A                      A
 Frequencies --     57.3538               166.6631               216.9077
 Red. masses --      3.3606                 2.7603                 3.4574
 Frc consts  --      0.0065                 0.0452                 0.0958
 IR Inten    --      0.0344                 1.4173                 0.1564

                      4                      5                      6
                      A                      A                      A
 Frequencies --    332.2688               354.4976               462.1707
 Red. masses --      2.4820                 2.3280                 2.8245
 Frc consts  --      0.1614                 0.1724                 0.3555
 IR Inten    --      3.9342                14.0367                 5.9719

                      7                      8                      9
                      A                      A                      A
 Frequencies --    548.2480               602.7365               671.5486
 Red. masses --      3.7642                 1.9905                 1.2611
 Frc consts  --      0.6666                 0.4261                 0.3351
 IR Inten    --     10.3657                12.1605                51.8632

                     10                     11                     12
                      A                      A                      A
 Frequencies --    685.1435               876.7962               888.2924
 Red. masses --      1.2767                 1.4049                 1.3143
 Frc consts  --      0.3531                 0.6364                 0.6110
 IR Inten    --     48.9197                 6.4223                52.3207

                     13                     14                     15
                      A                      A                      A
 Frequencies --    921.8070               955.8895              1022.4850
 Red. masses --      1.6660                 3.8617                 3.0701
 Frc consts  --      0.8341                 2.0789                 1.8911
 IR Inten    --     17.4511                 3.1392                 0.2942

                     16                     17                     18
                      A                      A                      A
 Frequencies --   1023.5718              1145.8926              1219.6091
 Red. masses --      1.5176                 1.6776                 1.1491
 Frc consts  --      0.9368                 1.2978                 1.0070
 IR Inten    --      0.6919                 0.1983                 0.2222

                     19                     20                     21
                      A                      A                      A
 Frequencies --   1308.6605              1375.8991              1465.8378
 Red. masses --      1.3169                 1.3761                 1.0832
 Frc consts  --      1.3288                 1.5348                 1.3712
 IR Inten    --     25.1010                 1.0029                 6.0992

                     22                     23                     24
                      A                      A                      A
 Frequencies --   1482.3102              2048.3929              2219.8072
 Red. masses --      1.5136                10.1070                 5.9700
 Frc consts  --      1.9595                24.9862                17.3322
 IR Inten    --      4.1362                57.6144                 9.9562

                     25                     26                     27
                      A                      A                      A
 Frequencies --   3013.9550              3069.9289              3121.5793
 Red. masses --      1.0666                 1.0930                 1.0576
 Frc consts  --      5.7085                 6.0690                 6.0718
 IR Inten    --     10.9769                 2.9457                 3.0096

                     28                     29                     30
                      A                      A                      A
 Frequencies --   3139.8457              3193.1913              3472.3359
 Red. masses --      1.0875                 1.1148                 1.1601
 Frc consts  --      6.3170                 6.6971                 8.2415
 IR Inten    --      2.2931                 1.2763                73.0786

 - Thermochemistry -
 -------------------
 Temperature   298.150 Kelvin.  Pressure   1.00000 Atm.
 Atom     1 has atomic number  6 and mass  12.00000

 Molecular mass:    78.04695 amu.
 Principal axes and moments of inertia in atomic units:
                           1         2         3
     Eigenvalues --   124.784611167.125961207.18115
           X            0.99997   0.00235   0.00763
           Y           -0.00221   0.99983  -0.01811
           Z           -0.00767   0.01809   0.99981
 This molecule is an asymmetric top.
 Rotational symmetry number  1.
 Rotational temperatures (Kelvin)      0.69411     0.07421     0.07175
 Rotational constants (GHZ):          14.46285     1.54631     1.49500
 Zero-point vibrational energy     245615.0 (Joules/Mol)
                                   58.70340 (Kcal/Mol)
 Warning -- explicit consideration of   8 degrees of freedom as
           vibrations may cause significant error
 Vibrational temperatures:     82.52   239.79   312.08   478.06   510.04
          (Kelvin)            664.96   788.81   867.20   966.21   985.77
                             1261.51  1278.05  1326.27  1375.31  1471.13
                             1472.69  1648.68  1754.75  1882.87  1979.61
                             2109.01  2132.71  2947.18  3193.81  4336.41
                             4416.94  4491.26  4517.54  4594.29  4995.92

 Zero-point correction=                           0.093550 (Hartree/Particle)
 Thermal correction to Energy=                    0.100279
 Thermal correction to Enthalpy=                  0.101223
 Thermal correction to Gibbs Free Energy=         0.063052
 Sum of electronic and zero-point Energies=           -232.115943
 Sum of electronic and thermal Energies=              -232.109214
 Sum of electronic and thermal Enthalpies=            -232.108270
 Sum of electronic and thermal Free Energies=         -232.146440

                     E (Thermal)             CV                S
                      KCal/Mol        Cal/Mol-Kelvin    Cal/Mol-Kelvin
 Total                   62.926             23.585             80.336
 Electronic               0.000              0.000              0.000
 Translational            0.889              2.981             38.979
 Rotational               0.889              2.981             26.666
 Vibrational             61.148             17.623             14.691
 Vibration     1          0.596              1.975              4.546
 Vibration     2          0.624              1.883              2.473
 Vibration     3          0.646              1.815              1.985
 Vibration     4          0.714              1.611              1.249
 Vibration     5          0.730              1.566              1.146
 Vibration     6          0.820              1.334              0.760
 Vibration     7          0.903              1.144              0.548
 Vibration     8          0.961              1.026              0.445

 Optimization completed.
    -- Stationary point found.
 Normal termination of Gaussian 16 at Mon Jun 20 11:42:20 2022.
