 Gaussian 16, Revision B.01,
 Gaussian 16:  ES64L-G16RevB.01 20-Dec-2017

 --------------------
 # b3lyp/gen opt freq
 --------------------

 ---------------------------
 chloromethyl, B3LYP/pcseg-2
 ---------------------------
 Symbolic Z-matrix:
 Charge =  0 Multiplicity = 2

 SCF Done:  E(UB3LYP) =  -499.499687455     A.U. after   14 cycles
 SCF Done:  E(UB3LYP) =  -499.499759678     A.U. after    9 cycles
 SCF Done:  E(UB3LYP) =  -499.499769903     A.U. after    8 cycles
 Optimization completed.
    -- Stationary point found.
 Normal termination of Gaussian 16 at Thu Jun 16 16:09:17 2022.

 ------------------------------------------------------------------
 #N Geom=AllCheck Guess=TCheck SCRF=Check GenChk UB3LYP/ChkBas Freq
 ------------------------------------------------------------------

 Structure from the checkpoint file:  "/wrk/irikura/Gau-29813.chk"
 ---------------------------
 chloromethyl, B3LYP/pcseg-2
 ---------------------------
 Charge =  0 Multiplicity = 2

                         Standard orientation:
 ---------------------------------------------------------------------
 Center     Atomic      Atomic             Coordinates (Angstroms)
 Number     Number       Type             X           Y           Z
 ---------------------------------------------------------------------
      1          6           0        0.000000   -0.000000   -1.117634
      2         17           0       -0.000000    0.000000    0.584738
      3          1           0       -0.000000    0.952117   -1.617374
      4          1           0       -0.000000   -0.952117   -1.617374
 ---------------------------------------------------------------------

 SCF Done:  E(UB3LYP) =  -499.499769903     A.U. after    1 cycles

 The electronic state is 2-B1.
 Alpha  occ. eigenvalues -- -101.52875 -10.23818  -9.47336  -7.23396  -7.22854
 Alpha  occ. eigenvalues --   -7.22553  -0.88364  -0.66541  -0.48039  -0.44725
 Alpha  occ. eigenvalues --   -0.38345  -0.32145  -0.22234
 Alpha virt. eigenvalues --    0.00868   0.05255   0.06642   0.13642   0.16840
 Alpha virt. eigenvalues --    0.19990   0.22848   0.30157   0.30823   0.33130
 Alpha virt. eigenvalues --    0.33899   0.36331   0.50525   0.53359   0.54972

  Beta  occ. eigenvalues -- -101.52772 -10.22371  -9.47237  -7.23384  -7.22492
  Beta  occ. eigenvalues --   -7.22478  -0.87273  -0.63487  -0.47230  -0.43945
  Beta  occ. eigenvalues --   -0.35287  -0.31912
  Beta virt. eigenvalues --   -0.08303   0.01750   0.05933   0.06725   0.13888
  Beta virt. eigenvalues --    0.19699   0.21275   0.22945   0.30908   0.30979
  Beta virt. eigenvalues --    0.34142   0.34643   0.36723   0.52457   0.54353

 Mulliken charges and spin densities:
               1          2
     1  C   -0.119433   0.953742
     2  Cl  -0.067052   0.107629
     3  H    0.093242  -0.030686
     4  H    0.093242  -0.030686
 Sum of Mulliken charges =  -0.00000   1.00000

 Dipole moment (field-independent basis, Debye):
    X=             -0.0000    Y=             -0.0000    Z=             -1.0590  Tot=              1.0590
 Quadrupole moment (field-independent basis, Debye-Ang):
   XX=            -20.6578   YY=            -18.5957   ZZ=            -17.5362
   XY=              0.0000   XZ=              0.0000   YZ=              0.0000

  Exact polarizability:  16.771  -0.000  18.674  -0.000  -0.000  32.632
 Approx polarizability:  22.682   0.000  25.041  -0.000  -0.000  46.653

                      1                      2                      3
                     B1                     A1                     B2
 Frequencies --    217.0815               832.5602               995.1662
 Red. masses --      1.2660                 7.1425                 1.1685
 Frc consts  --      0.0352                 2.9170                 0.6818
 IR Inten    --     83.2889                36.9912                 0.3025

                      4                      5                      6
                     A1                     A1                     B2
 Frequencies --   1413.4869              3174.2210              3326.3200
 Red. masses --      1.0945                 1.0405                 1.1297
 Frc consts  --      1.2884                 6.1769                 7.3644
 IR Inten    --     10.2892                 7.1495                 0.0073

 - Thermochemistry -
 -------------------
 Temperature   298.150 Kelvin.  Pressure   1.00000 Atm.
 Atom     1 has atomic number  6 and mass  12.00000

 Molecular mass:    48.98450 amu.
 Principal axes and moments of inertia in atomic units:
                           1         2         3
     Eigenvalues --     6.52519 114.01504 120.54023
           X            0.00000   0.00000   1.00000
           Y            0.00000   1.00000   0.00000
           Z            1.00000   0.00000   0.00000
 This molecule is an asymmetric top.
 Rotational symmetry number  2.
 Rotational temperatures (Kelvin)     13.27378     0.75967     0.71855
 Rotational constants (GHZ):         276.58060    15.82898    14.97211
 Zero-point vibrational energy      59567.1 (Joules/Mol)
                                   14.23687 (Kcal/Mol)
 Warning -- explicit consideration of   1 degrees of freedom as
           vibrations may cause significant error
 Vibrational temperatures:    312.33  1197.87  1431.82  2033.69  4567.00
          (Kelvin)           4785.83

 Zero-point correction=                           0.022688 (Hartree/Particle)
 Thermal correction to Energy=                    0.026169
 Thermal correction to Enthalpy=                  0.027113
 Thermal correction to Gibbs Free Energy=        -0.000921
 Sum of electronic and zero-point Energies=           -499.477082
 Sum of electronic and thermal Energies=              -499.473601
 Sum of electronic and thermal Enthalpies=            -499.472657
 Sum of electronic and thermal Free Energies=         -499.500691

                     E (Thermal)             CV                S
                      KCal/Mol        Cal/Mol-Kelvin    Cal/Mol-Kelvin
 Total                   16.421              8.859             59.003
 Electronic               0.000              0.000              1.377
 Translational            0.889              2.981             37.591
 Rotational               0.889              2.981             17.756
 Vibrational             14.644              2.897              2.278
 Vibration     1          0.646              1.815              1.983

                           ! Non-Optimized Parameters !
 Normal termination of Gaussian 16 at Thu Jun 16 16:09:26 2022.
