 Gaussian 16, Revision B.01,
 Gaussian 16:  ES64L-G16RevB.01 20-Dec-2017

 --------------------
 # b3lyp/gen opt freq
 --------------------

 ------------------------
 biallenyl, B3LYP/pcseg-2
 ------------------------
 Symbolic Z-matrix:
 Charge =  0 Multiplicity = 1

 SCF Done:  E(RB3LYP) =  -232.223935179     A.U. after   12 cycles
 SCF Done:  E(RB3LYP) =  -232.223992730     A.U. after    8 cycles
 SCF Done:  E(RB3LYP) =  -232.223864924     A.U. after    9 cycles
 SCF Done:  E(RB3LYP) =  -232.223994172     A.U. after    9 cycles
 SCF Done:  E(RB3LYP) =  -232.223995243     A.U. after    7 cycles
 Optimization completed.
    -- Stationary point found.
 Normal termination of Gaussian 16 at Mon Jun 20 11:43:27 2022.

 ------------------------------------------------------------------
 #N Geom=AllCheck Guess=TCheck SCRF=Check GenChk RB3LYP/ChkBas Freq
 ------------------------------------------------------------------

 Structure from the checkpoint file:  "/wrk/irikura/Gau-18637.chk"
 ------------------------
 biallenyl, B3LYP/pcseg-2
 ------------------------
 Charge =  0 Multiplicity = 1

                         Standard orientation:
 ---------------------------------------------------------------------
 Center     Atomic      Atomic             Coordinates (Angstroms)
 Number     Number       Type             X           Y           Z
 ---------------------------------------------------------------------
      1          6           0        0.323381    0.656582    0.000000
      2          6           0       -0.323381   -0.656582    0.000000
      3          6           0       -0.323381    1.794766    0.000000
      4          6           0        0.323381   -1.794766    0.000000
      5          6           0       -0.963250    2.925263    0.000000
      6          6           0        0.963250   -2.925263    0.000000
      7          1           0        1.408260    0.672359    0.000000
      8          1           0       -1.408260   -0.672359    0.000000
      9          1           0       -1.241864    3.419236    0.924137
     10          1           0       -1.241864    3.419236   -0.924137
     11          1           0        1.241864   -3.419236   -0.924137
     12          1           0        1.241864   -3.419236    0.924137
 ---------------------------------------------------------------------

 SCF Done:  E(RB3LYP) =  -232.223995243     A.U. after    1 cycles

 The electronic state is 1-AG.
 Alpha  occ. eigenvalues --  -10.19406 -10.19395 -10.19294 -10.19270 -10.18298
 Alpha  occ. eigenvalues --  -10.18298  -0.82925  -0.78783  -0.73942  -0.68104
 Alpha  occ. eigenvalues --   -0.53706  -0.53169  -0.48251  -0.46279  -0.45323
 Alpha  occ. eigenvalues --   -0.45050  -0.42024  -0.33034  -0.28862  -0.27508
 Alpha  occ. eigenvalues --   -0.23544
 Alpha virt. eigenvalues --   -0.02880  -0.00951  -0.00051   0.02646   0.03238
 Alpha virt. eigenvalues --    0.04582   0.05315   0.06721   0.07960   0.08249
 Alpha virt. eigenvalues --    0.11141   0.11629   0.14335   0.16135   0.17725

 Mulliken charges:
               1
     1  C   -0.060999
     2  C   -0.060999
     3  C    0.035526
     4  C    0.035526
     5  C   -0.165667
     6  C   -0.165667
     7  H    0.053669
     8  H    0.053669
     9  H    0.068735
    10  H    0.068735
    11  H    0.068735
    12  H    0.068735
 Sum of Mulliken charges =  -0.00000

 Dipole moment (field-independent basis, Debye):
    X=              0.0000    Y=             -0.0000    Z=              0.0000  Tot=              0.0000
 Quadrupole moment (field-independent basis, Debye-Ang):
   XX=            -35.4763   YY=            -31.8763   ZZ=            -36.7910
   XY=             -3.2904   XZ=             -0.0000   YZ=              0.0000

  Exact polarizability:  65.759 -39.124 145.215   0.000  -0.000  44.544
 Approx polarizability:  98.955 -63.070 206.108  -0.000   0.000  63.031

                      1                      2                      3
                     AU                     BU                     AG
 Frequencies --     82.6383               123.7821               235.3214
 Red. masses --      3.1476                 3.7234                 4.2481
 Frc consts  --      0.0127                 0.0336                 0.1386
 IR Inten    --      0.6411                 1.0567                 0.0000

                      4                      5                      6
                     BG                     AU                     AU
 Frequencies --    317.6404               355.2110               491.3384
 Red. masses --      2.3073                 2.2013                 1.2157
 Frc consts  --      0.1372                 0.1636                 0.1729
 IR Inten    --      0.0000                14.8681                 2.4868

                      7                      8                      9
                     AG                     BU                     BG
 Frequencies --    538.9569               551.2049               680.8511
 Red. masses --      6.7125                 4.5260                 1.5961
 Frc consts  --      1.1488                 0.8102                 0.4359
 IR Inten    --      0.0000                36.3856                 0.0000

                     10                     11                     12
                     AG                     BU                     BG
 Frequencies --    890.9852               891.5682               898.3699
 Red. masses --      1.3177                 1.3168                 1.2740
 Frc consts  --      0.6163                 0.6167                 0.6058
 IR Inten    --      0.0000               104.2254                 0.0000

                     13                     14                     15
                     AU                     AU                     BG
 Frequencies --    926.9824              1015.7462              1017.5855
 Red. masses --      1.1075                 1.4917                 1.4955
 Frc consts  --      0.5607                 0.9068                 0.9124
 IR Inten    --     36.9733                 0.9905                 0.0000

                     16                     17                     18
                     AG                     BU                     AG
 Frequencies --   1036.7038              1111.7798              1170.0838
 Red. masses --      5.0971                 2.2820                 1.6004
 Frc consts  --      3.2276                 1.6619                 1.2909
 IR Inten    --      0.0000                 3.2608                 0.0000

                     19                     20                     21
                     BU                     AG                     BU
 Frequencies --   1274.9816              1399.5834              1462.2798
 Red. masses --      1.3803                 1.2664                 1.2842
 Frc consts  --      1.3220                 1.4616                 1.6179
 IR Inten    --     16.7124                 0.0000                 0.7811

                     22                     23                     24
                     AG                     AG                     BU
 Frequencies --   1502.7140              2013.8861              2039.6819
 Red. masses --      1.9215                10.2959                10.2200
 Frc consts  --      2.5564                24.6029                25.0510
 IR Inten    --      0.0000                 0.0000               142.8121

                     25                     26                     27
                     AG                     BU                     AG
 Frequencies --   3111.2883              3111.6032              3134.4206
 Red. masses --      1.0568                 1.0575                 1.0867
 Frc consts  --      6.0272                 6.0324                 6.2904
 IR Inten    --      0.0000                19.2478                 0.0000

                     28                     29                     30
                     BU                     BG                     AU
 Frequencies --   3144.4103              3179.6988              3179.7143
 Red. masses --      1.0872                 1.1144                 1.1144
 Frc consts  --      6.3332                 6.6384                 6.6383
 IR Inten    --      4.0361                 0.0000                 3.6754

 - Thermochemistry -
 -------------------
 Temperature   298.150 Kelvin.  Pressure   1.00000 Atm.
 Atom     1 has atomic number  6 and mass  12.00000

 Molecular mass:    78.04695 amu.
 Principal axes and moments of inertia in atomic units:
                           1         2         3
     Eigenvalues --    55.035521321.456251351.90251
           X           -0.26833   0.96333   0.00000
           Y            0.96333   0.26833   0.00000
           Z           -0.00000  -0.00000   1.00000
 This molecule is an asymmetric top.
 Rotational symmetry number  2.
 Rotational temperatures (Kelvin)      1.57378     0.06554     0.06407
 Rotational constants (GHZ):          32.79230     1.36572     1.33496
 Zero-point vibrational energy     244582.6 (Joules/Mol)
                                   58.45664 (Kcal/Mol)
 Warning -- explicit consideration of   8 degrees of freedom as
           vibrations may cause significant error
 Vibrational temperatures:    118.90   178.09   338.57   457.01   511.07
          (Kelvin)            706.93   775.44   793.06   979.59  1281.93
                             1282.77  1292.55  1333.72  1461.43  1464.08
                             1491.59  1599.60  1683.49  1834.41  2013.69
                             2103.89  2162.07  2897.53  2934.65  4476.45
                             4476.90  4509.73  4524.11  4574.88  4574.90

 Zero-point correction=                           0.093157 (Hartree/Particle)
 Thermal correction to Energy=                    0.099836
 Thermal correction to Enthalpy=                  0.100780
 Thermal correction to Gibbs Free Energy=         0.063732
 Sum of electronic and zero-point Energies=           -232.130839
 Sum of electronic and thermal Energies=              -232.124159
 Sum of electronic and thermal Enthalpies=            -232.123215
 Sum of electronic and thermal Free Energies=         -232.160263

                     E (Thermal)             CV                S
                      KCal/Mol        Cal/Mol-Kelvin    Cal/Mol-Kelvin
 Total                   62.648             23.271             77.973
 Electronic               0.000              0.000              0.000
 Translational            0.889              2.981             38.979
 Rotational               0.889              2.981             24.711
 Vibrational             60.871             17.310             14.283
 Vibration     1          0.600              1.961              3.827
 Vibration     2          0.610              1.929              3.040
 Vibration     3          0.655              1.787              1.838
 Vibration     4          0.704              1.640              1.322
 Vibration     5          0.731              1.565              1.143
 Vibration     6          0.847              1.269              0.680
 Vibration     7          0.894              1.164              0.568
 Vibration     8          0.907              1.137              0.542

 Optimization completed.
    -- Stationary point found.
 Normal termination of Gaussian 16 at Mon Jun 20 11:44:41 2022.
