 Gaussian 16, Revision B.01,
 Gaussian 16:  ES64L-G16RevB.01 20-Dec-2017

 --------------------
 # b3lyp/gen opt freq
 --------------------

 -------------------------------
 isocyanoethylene, B3LYP/pcseg-2
 -------------------------------
 Symbolic Z-matrix:
 Charge =  0 Multiplicity = 1

 SCF Done:  E(RB3LYP) =  -170.868922388     A.U. after   13 cycles
 SCF Done:  E(RB3LYP) =  -170.869039447     A.U. after    9 cycles
 SCF Done:  E(RB3LYP) =  -170.869041897     A.U. after    8 cycles
 Optimization completed.
    -- Stationary point found.
 Normal termination of Gaussian 16 at Thu Jun 16 12:11:14 2022.

 ------------------------------------------------------------------
 #N Geom=AllCheck Guess=TCheck SCRF=Check GenChk RB3LYP/ChkBas Freq
 ------------------------------------------------------------------

 Structure from the checkpoint file:  "/wrk/irikura/Gau-27405.chk"
 -------------------------------
 isocyanoethylene, B3LYP/pcseg-2
 -------------------------------
 Charge =  0 Multiplicity = 1

                         Standard orientation:
 ---------------------------------------------------------------------
 Center     Atomic      Atomic             Coordinates (Angstroms)
 Number     Number       Type             X           Y           Z
 ---------------------------------------------------------------------
      1          6           0        1.313825    0.899187    0.000000
      2          6           0        0.000000    0.711296    0.000000
      3          7           0       -0.585299   -0.536178    0.000000
      4          1           0        1.713260    1.901709    0.000000
      5          1           0        2.006664    0.070670    0.000000
      6          1           0       -0.704722    1.532040    0.000000
      7          6           0       -1.133510   -1.569011    0.000000
 ---------------------------------------------------------------------

 SCF Done:  E(RB3LYP) =  -170.869041897     A.U. after    1 cycles

 The electronic state is 1-A'.
 Alpha  occ. eigenvalues --  -14.36437 -10.25681 -10.22098 -10.20625  -0.97869
 Alpha  occ. eigenvalues --   -0.81993  -0.69027  -0.56323  -0.49953  -0.43002
 Alpha  occ. eigenvalues --   -0.42747  -0.36516  -0.32053  -0.29468
 Alpha virt. eigenvalues --   -0.06073  -0.00521   0.02731   0.04123   0.05200
 Alpha virt. eigenvalues --    0.06024   0.11443   0.13012   0.14630   0.17271
 Alpha virt. eigenvalues --    0.17854   0.19150   0.22176   0.22231   0.23867

 Mulliken charges:
               1
     1  C   -0.086742
     2  C    0.136495
     3  N   -0.297904
     4  H    0.065871
     5  H    0.079607
     6  H    0.069907
     7  C    0.032767
 Sum of Mulliken charges =  -0.00000

 Dipole moment (field-independent basis, Debye):
    X=              1.7568    Y=              3.0755    Z=              0.0000  Tot=              3.5419
 Quadrupole moment (field-independent basis, Debye-Ang):
   XX=            -23.4462   YY=            -26.5104   ZZ=            -25.2304
   XY=             -3.2762   XZ=             -0.0000   YZ=             -0.0000

  Exact polarizability:  51.023  14.828  48.774  -0.000   0.000  26.783
 Approx polarizability:  79.020  24.577  71.738   0.000   0.000  37.411

                      1                      2                      3
                     A'                     A"                     A'
 Frequencies --    210.2170               279.5196               530.4306
 Red. masses --      5.3493                 4.0478                 3.0978
 Frc consts  --      0.1393                 0.1863                 0.5135
 IR Inten    --      0.8300                 0.0495                 2.8955

                      4                      5                      6
                     A"                     A'                     A"
 Frequencies --    721.2692               900.4811               958.2692
 Red. masses --      1.7149                 2.6152                 1.3339
 Frc consts  --      0.5256                 1.2494                 0.7217
 IR Inten    --      4.7327                10.1284                52.4888

                      7                      8                      9
                     A"                     A'                     A'
 Frequencies --    991.9098              1138.8727              1337.9821
 Red. masses --      1.1171                 1.9954                 1.2178
 Frc consts  --      0.6476                 1.5249                 1.2845
 IR Inten    --     16.9163                13.0466                 1.1358

                     10                     11                     12
                     A'                     A'                     A'
 Frequencies --   1439.8020              1683.2163              2198.7467
 Red. masses --      1.1914                 4.2099                12.8123
 Frc consts  --      1.4552                 7.0275                36.4946
 IR Inten    --      2.3005                28.2912               193.5330

                     13                     14                     15
                     A'                     A'                     A'
 Frequencies --   3167.8335              3185.8298              3262.9404
 Red. masses --      1.0577                 1.0937                 1.1181
 Frc consts  --      6.2538                 6.5403                 7.0137
 IR Inten    --      0.1726                 3.1311                 1.1653

 - Thermochemistry -
 -------------------
 Temperature   298.150 Kelvin.  Pressure   1.00000 Atm.
 Atom     1 has atomic number  6 and mass  12.00000

 Molecular mass:    53.02655 amu.
 Principal axes and moments of inertia in atomic units:
                           1         2         3
     Eigenvalues --    33.95466 335.31131 369.26597
           X            0.67780   0.73525   0.00000
           Y            0.73525  -0.67780   0.00000
           Z            0.00000   0.00000   1.00000
 This molecule is an asymmetric top.
 Rotational symmetry number  1.
 Rotational temperatures (Kelvin)      2.55087     0.25831     0.23456
 Rotational constants (GHZ):          53.15150     5.38229     4.88737
 Zero-point vibrational energy     131633.0 (Joules/Mol)
                                   31.46104 (Kcal/Mol)
 Warning -- explicit consideration of   3 degrees of freedom as
           vibrations may cause significant error
 Vibrational temperatures:    302.46   402.17   763.17  1037.75  1295.59
          (Kelvin)           1378.74  1427.14  1638.58  1925.06  2071.55
                             2421.77  3163.51  4557.81  4583.70  4694.64

 Zero-point correction=                           0.050136 (Hartree/Particle)
 Thermal correction to Energy=                    0.054442
 Thermal correction to Enthalpy=                  0.055386
 Thermal correction to Gibbs Free Energy=         0.024182
 Sum of electronic and zero-point Energies=           -170.818906
 Sum of electronic and thermal Energies=              -170.814600
 Sum of electronic and thermal Enthalpies=            -170.813656
 Sum of electronic and thermal Free Energies=         -170.844860

                     E (Thermal)             CV                S
                      KCal/Mol        Cal/Mol-Kelvin    Cal/Mol-Kelvin
 Total                   34.163             13.297             65.675
 Electronic               0.000              0.000              0.000
 Translational            0.889              2.981             37.827
 Rotational               0.889              2.981             22.957
 Vibrational             32.385              7.335              4.891
 Vibration     1          0.642              1.825              2.042
 Vibration     2          0.680              1.711              1.537
 Vibration     3          0.885              1.183              0.586

 Optimization completed.
    -- Stationary point found.
 Normal termination of Gaussian 16 at Thu Jun 16 12:11:50 2022.
