 Gaussian 16, Revision B.01,
 Gaussian 16:  ES64L-G16RevB.01 20-Dec-2017

 --------------------
 # b3lyp/gen opt freq
 --------------------

 ----------------------------------
 butadienylacetylene, B3LYP/pcseg-2
 ----------------------------------
 Symbolic Z-matrix:
 Charge =  0 Multiplicity = 1

 SCF Done:  E(RB3LYP) =  -232.238999596     A.U. after   14 cycles
 SCF Done:  E(RB3LYP) =  -232.239049667     A.U. after   10 cycles
 SCF Done:  E(RB3LYP) =  -232.238560987     A.U. after   11 cycles
 SCF Done:  E(RB3LYP) =  -232.239066348     A.U. after    9 cycles
 SCF Done:  E(RB3LYP) =  -232.239066464     A.U. after    7 cycles
 Optimization completed.
    -- Stationary point found.
 Normal termination of Gaussian 16 at Mon Jun 20 10:19:21 2022.

 ------------------------------------------------------------------
 #N Geom=AllCheck Guess=TCheck SCRF=Check GenChk RB3LYP/ChkBas Freq
 ------------------------------------------------------------------

 Structure from the checkpoint file:  "/wrk/irikura/Gau-5721.chk"
 ----------------------------------
 butadienylacetylene, B3LYP/pcseg-2
 ----------------------------------
 Charge =  0 Multiplicity = 1

                         Standard orientation:
 ---------------------------------------------------------------------
 Center     Atomic      Atomic             Coordinates (Angstroms)
 Number     Number       Type             X           Y           Z
 ---------------------------------------------------------------------
      1          6           0       -0.252958   -0.846722   -0.000000
      2          6           0        0.000000    0.475495    0.000000
      3          6           0        0.741284   -1.851930    0.000000
      4          6           0        1.562512   -2.732028    0.000000
      5          1           0        2.292974   -3.501778    0.000000
      6          1           0       -1.283221   -1.188953   -0.000000
      7          1           0        1.029994    0.814732    0.000000
      8          6           0       -1.030467    1.488795   -0.000000
      9          6           0       -0.789047    2.803178   -0.000000
     10          1           0       -2.057349    1.136788   -0.000000
     11          1           0        0.221478    3.192023    0.000000
     12          1           0       -1.591819    3.526461   -0.000000
 ---------------------------------------------------------------------

 SCF Done:  E(RB3LYP) =  -232.239066464     A.U. after    1 cycles

 The electronic state is 1-A'.
 Alpha  occ. eigenvalues --  -10.20210 -10.19454 -10.19002 -10.18196 -10.18099
 Alpha  occ. eigenvalues --  -10.17354  -0.83413  -0.78282  -0.73310  -0.64185
 Alpha  occ. eigenvalues --   -0.57292  -0.54154  -0.49943  -0.48749  -0.42332
 Alpha  occ. eigenvalues --   -0.41261  -0.36798  -0.36290  -0.31017  -0.28762
 Alpha  occ. eigenvalues --   -0.23460
 Alpha virt. eigenvalues --   -0.06629   0.01613   0.02650   0.02924   0.03550
 Alpha virt. eigenvalues --    0.04031   0.05642   0.07898   0.08298   0.08941
 Alpha virt. eigenvalues --    0.13327   0.14697   0.15057   0.15313   0.18372

 Mulliken charges:
               1
     1  C   -0.051225
     2  C    0.054165
     3  C    0.106339
     4  C   -0.233454
     5  H    0.058882
     6  H    0.040456
     7  H    0.040857
     8  C   -0.021422
     9  C   -0.115773
    10  H    0.023190
    11  H    0.045683
    12  H    0.052303
 Sum of Mulliken charges =   0.00000

 Dipole moment (field-independent basis, Debye):
    X=             -0.2825    Y=              0.5839    Z=             -0.0000  Tot=              0.6487
 Quadrupole moment (field-independent basis, Debye-Ang):
   XX=            -32.1697   YY=            -32.3425   ZZ=            -40.3279
   XY=             -2.0668   XZ=             -0.0000   YZ=              0.0000

  Exact polarizability:  69.736 -32.138 143.547  -0.000   0.000  40.403
 Approx polarizability: 103.912 -49.780 237.333   0.000  -0.000  58.050

                      1                      2                      3
                     A'                     A"                     A"
 Frequencies --    134.2759               137.6913               206.1247
 Red. masses --      3.5496                 2.8000                 2.5648
 Frc consts  --      0.0377                 0.0313                 0.0642
 IR Inten    --      1.1229                 1.7435                 0.6517

                      4                      5                      6
                     A'                     A"                     A'
 Frequencies --    309.8023               451.8769               462.1516
 Red. masses --      3.2266                 2.7557                 4.1051
 Frc consts  --      0.1825                 0.3315                 0.5166
 IR Inten    --      3.8235                 1.4819                 0.2032

                      7                      8                      9
                     A'                     A"                     A"
 Frequencies --    557.8058               637.0975               669.7410
 Red. masses --      3.7988                 1.2841                 1.5344
 Frc consts  --      0.6964                 0.3071                 0.4055
 IR Inten    --      7.5282                52.0132                 7.9182

                     10                     11                     12
                     A'                     A"                     A"
 Frequencies --    681.4700               887.4288               945.5493
 Red. masses --      1.2638                 1.8501                 1.2697
 Frc consts  --      0.3458                 0.8584                 0.6688
 IR Inten    --     47.7946                 8.3285                27.3570

                     13                     14                     15
                     A'                     A"                     A'
 Frequencies --    962.9627               979.1712              1036.0392
 Red. masses --      1.5097                 1.2692                 4.2912
 Frc consts  --      0.8248                 0.7170                 2.7138
 IR Inten    --      0.8754                26.2393                 6.0093

                     16                     17                     18
                     A"                     A'                     A'
 Frequencies --   1043.7459              1196.1179              1290.4054
 Red. masses --      1.1027                 2.0739                 1.2512
 Frc consts  --      0.7078                 1.7482                 1.2275
 IR Inten    --     43.0824                 1.6959                 0.2722

                     19                     20                     21
                     A'                     A'                     A'
 Frequencies --   1318.0891              1335.1184              1457.6113
 Red. masses --      1.4702                 1.3058                 1.2608
 Frc consts  --      1.5050                 1.3714                 1.5782
 IR Inten    --      0.9232                 4.4929                 2.3175

                     22                     23                     24
                     A'                     A'                     A'
 Frequencies --   1640.7977              1682.8963              2191.9327
 Red. masses --      4.4183                 4.3698                 6.2055
 Frc consts  --      7.0084                 7.2916                17.5663
 IR Inten    --      6.2626                 3.7597                 9.7756

                     25                     26                     27
                     A'                     A'                     A'
 Frequencies --   3134.3191              3136.2632              3144.3640
 Red. masses --      1.0874                 1.0803                 1.0687
 Frc consts  --      6.2940                 6.2606                 6.2252
 IR Inten    --      2.9053                 9.1842                 2.9616

                     28                     29                     30
                     A'                     A'                     A'
 Frequencies --   3157.9775              3230.9128              3471.6493
 Red. masses --      1.0880                 1.1155                 1.1549
 Frc consts  --      6.3930                 6.8608                 8.2009
 IR Inten    --     12.6029                 8.7715                97.6695

 - Thermochemistry -
 -------------------
 Temperature   298.150 Kelvin.  Pressure   1.00000 Atm.
 Atom     1 has atomic number  6 and mass  12.00000

 Molecular mass:    78.04695 amu.
 Principal axes and moments of inertia in atomic units:
                           1         2         3
     Eigenvalues --    65.241701266.884561332.12626
           X           -0.39865   0.91710   0.00000
           Y            0.91710   0.39865   0.00000
           Z            0.00000   0.00000   1.00000
 This molecule is an asymmetric top.
 Rotational symmetry number  1.
 Rotational temperatures (Kelvin)      1.32759     0.06837     0.06502
 Rotational constants (GHZ):          27.66239     1.42455     1.35478
 Zero-point vibrational energy     248173.6 (Joules/Mol)
                                   59.31492 (Kcal/Mol)
 Warning -- explicit consideration of   7 degrees of freedom as
           vibrations may cause significant error
 Vibrational temperatures:    193.19   198.11   296.57   445.74   650.15
          (Kelvin)            664.93   802.56   916.64   963.61   980.48
                             1276.81  1360.43  1385.49  1408.81  1490.63
                             1501.72  1720.95  1856.61  1896.44  1920.94
                             2097.18  2360.74  2421.31  3153.70  4509.59
                             4512.38  4524.04  4543.63  4648.56  4994.93

 Zero-point correction=                           0.094524 (Hartree/Particle)
 Thermal correction to Energy=                    0.101047
 Thermal correction to Enthalpy=                  0.101991
 Thermal correction to Gibbs Free Energy=         0.064807
 Sum of electronic and zero-point Energies=           -232.144542
 Sum of electronic and thermal Energies=              -232.138020
 Sum of electronic and thermal Enthalpies=            -232.137076
 Sum of electronic and thermal Free Energies=         -232.174260

                     E (Thermal)             CV                S
                      KCal/Mol        Cal/Mol-Kelvin    Cal/Mol-Kelvin
 Total                   63.408             23.062             78.261
 Electronic               0.000              0.000              0.000
 Translational            0.889              2.981             38.979
 Rotational               0.889              2.981             26.201
 Vibrational             61.630             17.100             13.080
 Vibration     1          0.613              1.919              2.884
 Vibration     2          0.614              1.916              2.836
 Vibration     3          0.641              1.831              2.078
 Vibration     4          0.699              1.655              1.363
 Vibration     5          0.811              1.357              0.790
 Vibration     6          0.820              1.334              0.760
 Vibration     7          0.913              1.123              0.528

 Optimization completed.
    -- Stationary point found.
 Normal termination of Gaussian 16 at Mon Jun 20 10:21:40 2022.
