 Gaussian 16, Revision B.01,

 ---------------------------------------
 # b3lyp/gen opt freq CPHF(Grid=OneStep)
 ---------------------------------------

 -----------------------------------
 1,1-difluoroethylene, B3LYP/pcseg-2
 -----------------------------------
 Symbolic Z-matrix:
 Charge =  0 Multiplicity = 1

 SCF Done:  E(RB3LYP) =  -277.190367013     A.U. after   12 cycles
 Optimization completed.
    -- Stationary point found.
 Normal termination of Gaussian 16 at Sun Oct  1 01:04:51 2023.

 ------------------------------------------------------------------
 #N Geom=AllCheck Guess=TCheck SCRF=Check GenChk RB3LYP/ChkBas Freq
 ------------------------------------------------------------------

 Structure from the checkpoint file:  "ch2cf2.chk"
 -----------------------------------
 1,1-difluoroethylene, B3LYP/pcseg-2
 -----------------------------------
 Charge =  0 Multiplicity = 1

 SCF Done:  E(RB3LYP) =  -277.190367013     A.U. after    1 cycles

  Exact polarizability:  18.489   0.000  24.093   0.000   0.000  34.808
 Approx polarizability:  24.533   0.000  32.165   0.000  -0.000  52.233

                      1                      2                      3
                     B2                     A1                     B1
 Frequencies --    442.2126               549.5292               630.5183
 Red. masses --      2.5517                12.5338                 6.6372
 Frc consts  --      0.2940                 2.2301                 1.5547
 IR Inten    --      0.8152                 4.4451                 0.0009

                      4                      5                      6
                     A2                     B1                     A1
 Frequencies --    720.4228               836.0757               936.5846
 Red. masses --      1.0456                 1.3484                 6.8271
 Frc consts  --      0.3197                 0.5553                 3.5284
 IR Inten    --      0.0000                78.4998                79.6183

                      7                      8                      9
                     B2                     B2                     A1
 Frequencies --    961.2362              1296.4936              1414.5537
 Red. masses --      1.7873                 6.2586                 1.1596
 Frc consts  --      0.9730                 6.1983                 1.3671
 IR Inten    --     25.5257               248.1213                 3.9292

                     10                     11                     12
                     A1                     A1                     B2
 Frequencies --   1769.4011              3198.2999              3297.1091
 Red. masses --      7.6707                 1.0597                 1.1200
 Frc consts  --     14.1494                 6.3864                 7.1735
 IR Inten    --    315.0186                 6.6669                 0.2747

 - Thermochemistry -
 -------------------
 Temperature   298.150 Kelvin.  Pressure   1.00000 Atm.
 Atom     1 has atomic number  6 and mass  12.00000

 Molecular mass:    64.01246 amu.
 Principal axes and moments of inertia in atomic units:
                           1         2         3
     Eigenvalues --   164.73136 172.88896 337.62032
           X            0.00000   0.00000   1.00000
           Y            0.00000   1.00000   0.00000
           Z            1.00000   0.00000   0.00000
 This molecule is an asymmetric top.
 Rotational symmetry number  2.
 Rotational temperatures (Kelvin)      0.52579     0.50098     0.25654
 Rotational constants (GHZ):          10.95566    10.43873     5.34548
 Zero-point vibrational energy      96014.9 (Joules/Mol)
                                   22.94811 (Kcal/Mol)
 Warning -- explicit consideration of   2 degrees of freedom as
           vibrations may cause significant error
 Vibrational temperatures:    636.25   790.65   907.18  1036.53  1202.93
          (Kelvin)           1347.54  1383.00  1865.37  2035.23  2545.77
                             4601.64  4743.80

 Zero-point correction=                           0.036570 (Hartree/Particle)
 Thermal correction to Energy=                    0.040290
 Thermal correction to Enthalpy=                  0.041234
 Thermal correction to Gibbs Free Energy=         0.011161
 Sum of electronic and zero-point Energies=           -277.153797
 Sum of electronic and thermal Energies=              -277.150077
 Sum of electronic and thermal Enthalpies=            -277.149133
 Sum of electronic and thermal Free Energies=         -277.179207

                     E (Thermal)             CV                S
                      KCal/Mol        Cal/Mol-Kelvin    Cal/Mol-Kelvin
 Total                   25.282             11.985             63.296
 Electronic               0.000              0.000              0.000
 Translational            0.889              2.981             38.388
 Rotational               0.889              2.981             22.401
 Vibrational             23.505              6.023              2.506
 Vibration     1          0.802              1.378              0.820
 Vibration     2          0.905              1.141              0.545

 Optimization completed.
    -- Stationary point found.
 Normal termination of Gaussian 16 at Sun Oct  1 01:05:59 2023.
 Gaussian 16:  ES64L-G16RevB.01 20-Dec-2017

 ---------------------------------
 # rohf/gen geom=check guess=check
 ---------------------------------

 --------------------------------------
 1,1-difluoroethylene, ROHF/cc-pVTZ-F12
 --------------------------------------
 Structure from the checkpoint file:  "ch2cf2.chk"
 Charge =  0 Multiplicity = 1

                         Standard orientation:
 ---------------------------------------------------------------------
 Center     Atomic      Atomic             Coordinates (Angstroms)
 Number     Number       Type             X           Y           Z
 ---------------------------------------------------------------------
      1          6           0        0.000000   -0.000000    1.382476
      2          6           0        0.000000   -0.000000    0.067407
      3          1           0       -0.000000    0.933869    1.918271
      4          1           0       -0.000000   -0.933869    1.918271
      5          9           0       -0.000000    1.080635   -0.696435
      6          9           0       -0.000000   -1.080635   -0.696435
 ---------------------------------------------------------------------

 SCF Done:  E(ROHF) =  -275.870637558     A.U. after   10 cycles

 The electronic state is 1-A1.
 Alpha  occ. eigenvalues --  -26.34490 -26.34488 -11.42837 -11.24383  -1.70269
 Alpha  occ. eigenvalues --   -1.63795  -1.07414  -0.88639  -0.80291  -0.76309
 Alpha  occ. eigenvalues --   -0.75305  -0.69050  -0.66828  -0.64059  -0.59993
 Alpha  occ. eigenvalues --   -0.39601
 Alpha virt. eigenvalues --    0.04914   0.06333   0.07020   0.07464   0.09244
 Alpha virt. eigenvalues --    0.09499   0.10239   0.17872   0.18210   0.18470
 Alpha virt. eigenvalues --    0.20758   0.21552   0.23007   0.23544   0.25797

 Mulliken charges and spin densities:
               1          2
     1  C   -0.327337   0.000000
     2  C    0.597711   0.000000
     3  H    0.180968   0.000000
     4  H    0.180968   0.000000
     5  F   -0.316155   0.000000
     6  F   -0.316155   0.000000
 Sum of Mulliken charges =  -0.00000   0.00000

 Dipole moment (field-independent basis, Debye):
    X=              0.0000    Y=              0.0000    Z=              1.5522  Tot=              1.5522
 Quadrupole moment (field-independent basis, Debye-Ang):
   XX=            -22.6164   YY=            -22.4805   ZZ=            -20.3125
   XY=             -0.0000   XZ=             -0.0000   YZ=              0.0000

 Normal termination of Gaussian 16 at Sun Oct  1 01:06:25 2023.
