 Gaussian 16, Revision B.01,

 ---------------------------------------
 # b3lyp/gen opt freq CPHF(Grid=OneStep)
 ---------------------------------------

 ----------------------------------
 butadienylacetylene, B3LYP/pcseg-2
 ----------------------------------
 Symbolic Z-matrix:
 Charge =  0 Multiplicity = 1

 SCF Done:  E(RB3LYP) =  -232.239066464     A.U. after   14 cycles
 Optimization completed.
    -- Stationary point found.
 Normal termination of Gaussian 16 at Sun Oct  1 04:49:19 2023.

 ------------------------------------------------------------------
 #N Geom=AllCheck Guess=TCheck SCRF=Check GenChk RB3LYP/ChkBas Freq
 ------------------------------------------------------------------

 Structure from the checkpoint file:  "ch2chchchcch.chk"
 ----------------------------------
 butadienylacetylene, B3LYP/pcseg-2
 ----------------------------------
 Charge =  0 Multiplicity = 1

 SCF Done:  E(RB3LYP) =  -232.239066464     A.U. after    1 cycles

  Exact polarizability:  69.736 -32.137 143.548  -0.000   0.000  40.403
 Approx polarizability: 103.912 -49.780 237.333  -0.000   0.000  58.050

                      1                      2                      3
                     A'                     A"                     A"
 Frequencies --    134.2735               137.6949               206.1250
 Red. masses --      3.5496                 2.8001                 2.5649
 Frc consts  --      0.0377                 0.0313                 0.0642
 IR Inten    --      1.1228                 1.7433                 0.6516

                      4                      5                      6
                     A'                     A"                     A'
 Frequencies --    309.8005               451.8789               462.1509
 Red. masses --      3.2266                 2.7558                 4.1051
 Frc consts  --      0.1825                 0.3315                 0.5166
 IR Inten    --      3.8234                 1.4819                 0.2031

                      7                      8                      9
                     A'                     A"                     A"
 Frequencies --    557.8050               637.0989               669.7438
 Red. masses --      3.7988                 1.2841                 1.5344
 Frc consts  --      0.6964                 0.3071                 0.4055
 IR Inten    --      7.5281                52.0142                 7.9180

                     10                     11                     12
                     A'                     A"                     A"
 Frequencies --    681.4720               887.4286               945.5491
 Red. masses --      1.2638                 1.8501                 1.2697
 Frc consts  --      0.3458                 0.8584                 0.6688
 IR Inten    --     47.7934                 8.3289                27.3573

                     13                     14                     15
                     A'                     A"                     A'
 Frequencies --    962.9663               979.1713              1036.0404
 Red. masses --      1.5097                 1.2692                 4.2912
 Frc consts  --      0.8249                 0.7170                 2.7138
 IR Inten    --      0.8748                26.2384                 6.0085

                     16                     17                     18
                     A"                     A'                     A'
 Frequencies --   1043.7452              1196.1230              1290.4137
 Red. masses --      1.1027                 2.0740                 1.2511
 Frc consts  --      0.7078                 1.7482                 1.2275
 IR Inten    --     43.0847                 1.6949                 0.2727

                     19                     20                     21
                     A'                     A'                     A'
 Frequencies --   1318.0988              1335.1187              1457.6165
 Red. masses --      1.4702                 1.3058                 1.2608
 Frc consts  --      1.5050                 1.3714                 1.5782
 IR Inten    --      0.9229                 4.4929                 2.3165

                     22                     23                     24
                     A'                     A'                     A'
 Frequencies --   1640.7959              1682.8969              2191.9358
 Red. masses --      4.4183                 4.3697                 6.2055
 Frc consts  --      7.0083                 7.2915                17.5663
 IR Inten    --      6.2618                 3.7586                 9.7731

                     25                     26                     27
                     A'                     A'                     A'
 Frequencies --   3134.3347              3136.2693              3144.3688
 Red. masses --      1.0874                 1.0803                 1.0686
 Frc consts  --      6.2941                 6.2606                 6.2251
 IR Inten    --      2.9320                 9.1573                 2.9635

                     28                     29                     30
                     A'                     A'                     A'
 Frequencies --   3157.9842              3230.9214              3471.6469
 Red. masses --      1.0880                 1.1155                 1.1549
 Frc consts  --      6.3930                 6.8608                 8.2009
 IR Inten    --     12.6053                 8.7675                97.6652

 - Thermochemistry -
 -------------------
 Temperature   298.150 Kelvin.  Pressure   1.00000 Atm.
 Atom     1 has atomic number  6 and mass  12.00000

 Molecular mass:    78.04695 amu.
 Principal axes and moments of inertia in atomic units:
                           1         2         3
     Eigenvalues --    65.241681266.884561332.12623
           X           -0.39865   0.91710   0.00000
           Y            0.91710   0.39865   0.00000
           Z           -0.00000  -0.00000   1.00000
 This molecule is an asymmetric top.
 Rotational symmetry number  1.
 Rotational temperatures (Kelvin)      1.32759     0.06837     0.06502
 Rotational constants (GHZ):          27.66240     1.42455     1.35478
 Zero-point vibrational energy     248174.1 (Joules/Mol)
                                   59.31503 (Kcal/Mol)
 Warning -- explicit consideration of   7 degrees of freedom as
           vibrations may cause significant error
 Vibrational temperatures:    193.19   198.11   296.57   445.73   650.15
          (Kelvin)            664.93   802.56   916.64   963.61   980.49
                             1276.81  1360.43  1385.49  1408.81  1490.63
                             1501.72  1720.95  1856.62  1896.45  1920.94
                             2097.18  2360.74  2421.31  3153.71  4509.61
                             4512.39  4524.05  4543.63  4648.58  4994.93

 Zero-point correction=                           0.094525 (Hartree/Particle)
 Thermal correction to Energy=                    0.101047
 Thermal correction to Enthalpy=                  0.101991
 Thermal correction to Gibbs Free Energy=         0.064807
 Sum of electronic and zero-point Energies=           -232.144542
 Sum of electronic and thermal Energies=              -232.138020
 Sum of electronic and thermal Enthalpies=            -232.137075
 Sum of electronic and thermal Free Energies=         -232.174260

                     E (Thermal)             CV                S
                      KCal/Mol        Cal/Mol-Kelvin    Cal/Mol-Kelvin
 Total                   63.408             23.062             78.261
 Electronic               0.000              0.000              0.000
 Translational            0.889              2.981             38.979
 Rotational               0.889              2.981             26.201
 Vibrational             61.630             17.100             13.080
 Vibration     1          0.613              1.919              2.884
 Vibration     2          0.614              1.916              2.836
 Vibration     3          0.641              1.831              2.078
 Vibration     4          0.699              1.655              1.363
 Vibration     5          0.811              1.357              0.790
 Vibration     6          0.820              1.334              0.760
 Vibration     7          0.913              1.123              0.528

 Optimization completed.
    -- Stationary point found.
 Normal termination of Gaussian 16 at Sun Oct  1 04:57:32 2023.
 Gaussian 16:  ES64L-G16RevB.01 20-Dec-2017

 ---------------------------------
 # rohf/gen geom=check guess=check
 ---------------------------------

 -------------------------------------
 butadienylacetylene, ROHF/cc-pVTZ-F12
 -------------------------------------
 Structure from the checkpoint file:  "ch2chchchcch.chk"
 Charge =  0 Multiplicity = 1

                         Standard orientation:
 ---------------------------------------------------------------------
 Center     Atomic      Atomic             Coordinates (Angstroms)
 Number     Number       Type             X           Y           Z
 ---------------------------------------------------------------------
      1          6           0       -0.252958   -0.846722   -0.000000
      2          6           0        0.000000    0.475495    0.000000
      3          6           0        0.741284   -1.851930   -0.000000
      4          6           0        1.562512   -2.732028   -0.000000
      5          1           0        2.292974   -3.501778   -0.000000
      6          1           0       -1.283221   -1.188953   -0.000000
      7          1           0        1.029994    0.814732    0.000000
      8          6           0       -1.030467    1.488795    0.000000
      9          6           0       -0.789047    2.803178    0.000000
     10          1           0       -2.057349    1.136788   -0.000000
     11          1           0        0.221478    3.192023    0.000000
     12          1           0       -1.591819    3.526461    0.000000
 ---------------------------------------------------------------------

 SCF Done:  E(ROHF) =  -230.692774024     A.U. after   13 cycles

 The electronic state is 1-A'.
 Alpha  occ. eigenvalues --  -11.25809 -11.25487 -11.24705 -11.23928 -11.23822
 Alpha  occ. eigenvalues --  -11.22800  -1.11946  -1.05610  -0.99369  -0.86501
 Alpha  occ. eigenvalues --   -0.77386  -0.72831  -0.67516  -0.65712  -0.58531
 Alpha  occ. eigenvalues --   -0.56886  -0.51410  -0.48485  -0.41475  -0.39621
 Alpha  occ. eigenvalues --   -0.31198
 Alpha virt. eigenvalues --    0.04484   0.04789   0.04865   0.06307   0.06544
 Alpha virt. eigenvalues --    0.07417   0.07778   0.09028   0.09077   0.09621
 Alpha virt. eigenvalues --    0.10154   0.11102   0.12113   0.12391   0.13128

 Mulliken charges and spin densities:
               1          2
     1  C   -0.216056   0.000000
     2  C   -0.054344   0.000000
     3  C    0.098660   0.000000
     4  C   -0.384544   0.000000
     5  H    0.241626   0.000000
     6  H    0.161847   0.000000
     7  H    0.175063   0.000000
     8  C   -0.116936   0.000000
     9  C   -0.370259   0.000000
    10  H    0.161708   0.000000
    11  H    0.139905   0.000000
    12  H    0.163330   0.000000
 Sum of Mulliken charges =  -0.00000   0.00000

 Dipole moment (field-independent basis, Debye):
    X=             -0.2986    Y=              0.7833    Z=              0.0000  Tot=              0.8383
 Quadrupole moment (field-independent basis, Debye-Ang):
   XX=            -32.0832   YY=            -31.8458   ZZ=            -41.0711
   XY=             -2.1850   XZ=             -0.0000   YZ=              0.0000

 Normal termination of Gaussian 16 at Sun Oct  1 05:02:59 2023.
