 Gaussian 16, Revision B.01,
 Gaussian 16:  ES64L-G16RevB.01 20-Dec-2017

 --------------------
 # b3lyp/gen opt freq
 --------------------

 --------------------------------------
 3-methylenecyclopropene, B3LYP/pcseg-2
 --------------------------------------
 Symbolic Z-matrix:
 Charge =  0 Multiplicity = 1

 SCF Done:  E(RB3LYP) =  -154.766557443     A.U. after   12 cycles
 SCF Done:  E(RB3LYP) =  -154.766608448     A.U. after    8 cycles
 SCF Done:  E(RB3LYP) =  -154.766610584     A.U. after    7 cycles
 Optimization completed.
    -- Stationary point found.
 Normal termination of Gaussian 16 at Thu Jun 16 08:11:51 2022.

 ------------------------------------------------------------------
 #N Geom=AllCheck Guess=TCheck SCRF=Check GenChk RB3LYP/ChkBas Freq
 ------------------------------------------------------------------

 Structure from the checkpoint file:  "/wrk/irikura/Gau-14067.chk"
 --------------------------------------
 3-methylenecyclopropene, B3LYP/pcseg-2
 --------------------------------------
 Charge =  0 Multiplicity = 1

                         Standard orientation:
 ---------------------------------------------------------------------
 Center     Atomic      Atomic             Coordinates (Angstroms)
 Number     Number       Type             X           Y           Z
 ---------------------------------------------------------------------
      1          6           0        0.000000    0.000000    1.586774
      2          6           0        0.000000    0.000000    0.260951
      3          6           0        0.000000    0.656550   -1.016316
      4          6           0       -0.000000   -0.656550   -1.016316
      5          1           0        0.000000    0.925867    2.143093
      6          1           0       -0.000000   -0.925867    2.143093
      7          1           0        0.000000    1.567562   -1.588370
      8          1           0       -0.000000   -1.567562   -1.588370
 ---------------------------------------------------------------------

 SCF Done:  E(RB3LYP) =  -154.766610584     A.U. after    1 cycles

 The electronic state is 1-A1.
 Alpha  occ. eigenvalues --  -10.21769 -10.21661 -10.20390 -10.13766  -0.91612
 Alpha  occ. eigenvalues --   -0.71297  -0.59432  -0.56907  -0.47968  -0.42555
 Alpha  occ. eigenvalues --   -0.39047  -0.38101  -0.31049  -0.21407
 Alpha virt. eigenvalues --   -0.03239   0.02737   0.03941   0.04412   0.04952
 Alpha virt. eigenvalues --    0.07554   0.10298   0.12531   0.14646   0.15755
 Alpha virt. eigenvalues --    0.17584   0.18548   0.21875   0.24094   0.24867

 Mulliken charges:
               1
     1  C   -0.205936
     2  C    0.100126
     3  C   -0.050084
     4  C   -0.050084
     5  H    0.037753
     6  H    0.037753
     7  H    0.065235
     8  H    0.065235
 Sum of Mulliken charges =   0.00000

 Dipole moment (field-independent basis, Debye):
    X=             -0.0000    Y=              0.0000    Z=             -2.1306  Tot=              2.1306
 Quadrupole moment (field-independent basis, Debye-Ang):
   XX=            -26.7815   YY=            -20.6704   ZZ=            -23.1333
   XY=              0.0000   XZ=              0.0000   YZ=              0.0000

  Exact polarizability:  28.033   0.000  42.200   0.000  -0.000  65.890
 Approx polarizability:  39.753   0.000  66.969   0.000  -0.000  95.358

                      1                      2                      3
                     B2                     B1                     B1
 Frequencies --    361.4859               431.3620               690.7736
 Red. masses --      2.2589                 2.5971                 1.5099
 Frc consts  --      0.1739                 0.2847                 0.4245
 IR Inten    --      3.8410                29.5632                30.7475

                      4                      5                      6
                     A2                     B1                     A1
 Frequencies --    713.1412               781.8549               842.6202
 Red. masses --      1.0920                 1.3096                 1.8276
 Frc consts  --      0.3272                 0.4717                 0.7645
 IR Inten    --      0.0000                84.4685                 0.4150

                      7                      8                      9
                     B2                     A2                     A1
 Frequencies --    852.4028               918.2908              1023.5503
 Red. masses --      1.9967                 1.4043                 1.6275
 Frc consts  --      0.8548                 0.6977                 1.0046
 IR Inten    --      6.0683                 0.0000                 7.7071

                     10                     11                     12
                     B2                     B2                     A1
 Frequencies --   1070.5201              1125.3854              1461.3459
 Red. masses --      1.5694                 2.2294                 1.1547
 Frc consts  --      1.0597                 1.6635                 1.4529
 IR Inten    --      7.9072                10.3187                 1.7388

                     13                     14                     15
                     A1                     A1                     A1
 Frequencies --   1602.6273              1818.6093              3150.0331
 Red. masses --      6.0871                 7.6273                 1.0554
 Frc consts  --      9.2114                14.8627                 6.1703
 IR Inten    --     27.7714               222.7719                 3.0213

                     16                     17                     18
                     B2                     B2                     A1
 Frequencies --   3231.9915              3241.5757              3280.6670
 Red. masses --      1.1160                 1.0868                 1.1389
 Frc consts  --      6.8686                 6.7282                 7.2219
 IR Inten    --     10.5470                 1.0365                 2.2848

 - Thermochemistry -
 -------------------
 Temperature   298.150 Kelvin.  Pressure   1.00000 Atm.
 Atom     1 has atomic number  6 and mass  12.00000

 Molecular mass:    52.03130 amu.
 Principal axes and moments of inertia in atomic units:
                           1         2         3
     Eigenvalues --    60.80170 250.47641 311.27811
           X            0.00000   0.00000   1.00000
           Y            0.00000   1.00000   0.00000
           Z            1.00000   0.00000   0.00000
 This molecule is an asymmetric top.
 Rotational symmetry number  2.
 Rotational temperatures (Kelvin)      1.42453     0.34580     0.27825
 Rotational constants (GHZ):          29.68241     7.20523     5.79784
 Zero-point vibrational energy     159092.8 (Joules/Mol)
                                   38.02409 (Kcal/Mol)
 Warning -- explicit consideration of   2 degrees of freedom as
           vibrations may cause significant error
 Vibrational temperatures:    520.10   620.63   993.87  1026.05  1124.91
          (Kelvin)           1212.34  1226.42  1321.22  1472.66  1540.24
                             1619.18  2102.55  2305.82  2616.57  4532.19
                             4650.11  4663.90  4720.15

 Zero-point correction=                           0.060595 (Hartree/Particle)
 Thermal correction to Energy=                    0.064641
 Thermal correction to Enthalpy=                  0.065585
 Thermal correction to Gibbs Free Energy=         0.035661
 Sum of electronic and zero-point Energies=           -154.706015
 Sum of electronic and thermal Energies=              -154.701970
 Sum of electronic and thermal Enthalpies=            -154.701026
 Sum of electronic and thermal Free Energies=         -154.730949

                     E (Thermal)             CV                S
                      KCal/Mol        Cal/Mol-Kelvin    Cal/Mol-Kelvin
 Total                   40.563             13.953             62.980
 Electronic               0.000              0.000              0.000
 Translational            0.889              2.981             37.771
 Rotational               0.889              2.981             21.699
 Vibrational             38.785              7.992              3.510
 Vibration     1          0.736              1.552              1.116
 Vibration     2          0.792              1.402              0.854

 Optimization completed.
    -- Stationary point found.
 Normal termination of Gaussian 16 at Thu Jun 16 08:12:20 2022.
