 Gaussian 16, Revision B.01,

 ---------------------------------------
 # b3lyp/gen opt freq CPHF(Grid=OneStep)
 ---------------------------------------

 -----------------------------------
 1,1-dichloroethylene, B3LYP/pcseg-2
 -----------------------------------
 Symbolic Z-matrix:
 Charge =  0 Multiplicity = 1

 SCF Done:  E(RB3LYP) =  -997.892119513     A.U. after   13 cycles
 Optimization completed.
    -- Stationary point found.
 Normal termination of Gaussian 16 at Sat Sep 30 11:24:44 2023.

 ------------------------------------------------------------------
 #N Geom=AllCheck Guess=TCheck SCRF=Check GenChk RB3LYP/ChkBas Freq
 ------------------------------------------------------------------

 Structure from the checkpoint file:  "ch2ccl2.chk"
 -----------------------------------
 1,1-dichloroethylene, B3LYP/pcseg-2
 -----------------------------------
 Charge =  0 Multiplicity = 1

 SCF Done:  E(RB3LYP) =  -997.892119513     A.U. after    1 cycles

  Exact polarizability:  29.221   0.000  54.545   0.000   0.000  57.653
 Approx polarizability:  44.078   0.000  80.335   0.000   0.000  91.349

                      1                      2                      3
                     A1                     B2                     B1
 Frequencies --    297.6324               379.1198               476.6132
 Red. masses --     19.0123                 2.9764                 6.2245
 Frc consts  --      0.9923                 0.2521                 0.8331
 IR Inten    --      0.0035                 0.2843                 6.9103

                      4                      5                      6
                     A1                     A2                     B2
 Frequencies --    597.3339               695.8311               766.6969
 Red. masses --      9.1471                 1.0193                 3.4257
 Frc consts  --      1.9229                 0.2908                 1.1865
 IR Inten    --     16.7237                 0.0000               107.3533

                      7                      8                      9
                     B1                     B2                     A1
 Frequencies --    906.4108              1097.2030              1407.2327
 Red. masses --      1.3451                 1.8944                 1.1733
 Frc consts  --      0.6511                 1.3437                 1.3690
 IR Inten    --     47.7109                94.8057                 0.3004

                     10                     11                     12
                     A1                     A1                     B2
 Frequencies --   1661.5689              3173.4067              3267.2072
 Red. masses --      5.3399                 1.0589                 1.1186
 Frc consts  --      8.6861                 6.2830                 7.0350
 IR Inten    --     86.6820                 1.9812                 0.0710

 - Thermochemistry -
 -------------------
 Temperature   298.150 Kelvin.  Pressure   1.00000 Atm.
 Atom     1 has atomic number  6 and mass  12.00000

 Molecular mass:    95.95336 amu.
 Principal axes and moments of inertia in atomic units:
                           1         2         3
     Eigenvalues --   241.95507 536.74587 778.70094
           X            0.00000   0.00000   1.00000
           Y            1.00000   0.00000   0.00000
           Z            0.00000   1.00000   0.00000
 This molecule is an asymmetric top.
 Rotational symmetry number  2.
 Rotational temperatures (Kelvin)      0.35798     0.16137     0.11123
 Rotational constants (GHZ):           7.45899     3.36238     2.31763
 Zero-point vibrational energy      88082.6 (Joules/Mol)
                                   21.05224 (Kcal/Mol)
 Warning -- explicit consideration of   4 degrees of freedom as
           vibrations may cause significant error
 Vibrational temperatures:    428.23   545.47   685.74   859.43  1001.15
          (Kelvin)           1103.11  1304.12  1578.63  2024.69  2390.63
                             4565.82  4700.78

 Zero-point correction=                           0.033549 (Hartree/Particle)
 Thermal correction to Energy=                    0.037829
 Thermal correction to Enthalpy=                  0.038773
 Thermal correction to Gibbs Free Energy=         0.006107
 Sum of electronic and zero-point Energies=           -997.858571
 Sum of electronic and thermal Energies=              -997.854291
 Sum of electronic and thermal Enthalpies=            -997.853347
 Sum of electronic and thermal Free Energies=         -997.886012

                     E (Thermal)             CV                S
                      KCal/Mol        Cal/Mol-Kelvin    Cal/Mol-Kelvin
 Total                   23.738             13.957             68.750
 Electronic               0.000              0.000              0.000
 Translational            0.889              2.981             39.595
 Rotational               0.889              2.981             24.739
 Vibrational             21.960              7.996              4.416
 Vibration     1          0.691              1.678              1.430
 Vibration     2          0.749              1.515              1.043
 Vibration     3          0.833              1.302              0.719
 Vibration     4          0.955              1.037              0.454

 Optimization completed.
    -- Stationary point found.
 Normal termination of Gaussian 16 at Sat Sep 30 11:25:56 2023.
 Gaussian 16:  ES64L-G16RevB.01 20-Dec-2017

 ---------------------------------
 # rohf/gen geom=check guess=check
 ---------------------------------

 --------------------------------------
 1,1-dichloroethylene, ROHF/cc-pVTZ-F12
 --------------------------------------
 Structure from the checkpoint file:  "ch2ccl2.chk"
 Charge =  0 Multiplicity = 1

                         Standard orientation:
 ---------------------------------------------------------------------
 Center     Atomic      Atomic             Coordinates (Angstroms)
 Number     Number       Type             X           Y           Z
 ---------------------------------------------------------------------
      1          6           0        0.000000    0.000000    1.745600
      2          6           0        0.000000    0.000000    0.424094
      3          1           0        0.000000    0.929475    2.293358
      4          1           0       -0.000000   -0.929475    2.293358
      5         17           0        0.000000    1.457469   -0.517791
      6         17           0       -0.000000   -1.457469   -0.517791
 ---------------------------------------------------------------------

 SCF Done:  E(ROHF) =  -995.944337448     A.U. after   12 cycles

 The electronic state is 1-A1.
 Alpha  occ. eigenvalues -- -104.86022-104.86022 -11.36716 -11.25971 -10.58515
 Alpha  occ. eigenvalues --  -10.58514  -8.05215  -8.05215  -8.05044  -8.05044
 Alpha  occ. eigenvalues --   -8.05037  -8.05037  -1.21331  -1.11001  -1.02272
 Alpha  occ. eigenvalues --   -0.77061  -0.66455  -0.64347  -0.56431  -0.54886
 Alpha  occ. eigenvalues --   -0.49174  -0.47784  -0.45622  -0.37602
 Alpha virt. eigenvalues --    0.04655   0.06001   0.06475   0.06766   0.08107
 Alpha virt. eigenvalues --    0.10908   0.10961   0.11238   0.12034   0.13377
 Alpha virt. eigenvalues --    0.13940   0.14861   0.15209   0.15842   0.17264

 Mulliken charges and spin densities:
               1          2
     1  C   -0.273647   0.000000
     2  C   -0.082318   0.000000
     3  H    0.160486   0.000000
     4  H    0.160486   0.000000
     5  Cl   0.017497   0.000000
     6  Cl   0.017497   0.000000
 Sum of Mulliken charges =  -0.00000   0.00000

 Dipole moment (field-independent basis, Debye):
    X=             -0.0000    Y=             -0.0000    Z=              1.6416  Tot=              1.6416
 Quadrupole moment (field-independent basis, Debye-Ang):
   XX=            -38.9427   YY=            -36.9448   ZZ=            -33.7739
   XY=             -0.0000   XZ=             -0.0000   YZ=             -0.0000

 Normal termination of Gaussian 16 at Sat Sep 30 11:26:39 2023.
