 Gaussian 16, Revision B.01,

 --------------------------------------------
 # b3lyp/gen opt=cart freq CPHF(Grid=OneStep)
 --------------------------------------------

 -----------------------------------
 cis-divinylacetylene, B3LYP/pcseg-2
 -----------------------------------
 Symbolic Z-matrix:
 Charge =  0 Multiplicity = 1

 SCF Done:  E(RB3LYP) =  -232.240316777     A.U. after   12 cycles
 Optimization completed.
    -- Stationary point found.
 Normal termination of Gaussian 16 at Tue Oct  3 14:21:30 2023.

 ------------------------------------------------------------------
 #N Geom=AllCheck Guess=TCheck SCRF=Check GenChk RB3LYP/ChkBas Freq
 ------------------------------------------------------------------

 Structure from the checkpoint file:  "ch2chccchch2.chk"
 -----------------------------------
 cis-divinylacetylene, B3LYP/pcseg-2
 -----------------------------------
 Charge =  0 Multiplicity = 1

 SCF Done:  E(RB3LYP) =  -232.240316777     A.U. after    1 cycles

  Exact polarizability:  40.847  -0.000 146.373   0.000   0.000  63.906
 Approx polarizability:  58.036  -0.000 232.834  -0.000  -0.000  99.439

                      1                      2                      3
                     A2                     A1                     B1
 Frequencies --     67.7974               102.4248               172.4495
 Red. masses --      1.9428                 3.4035                 2.2293
 Frc consts  --      0.0053                 0.0210                 0.0391
 IR Inten    --      0.0000                 2.0201                 7.6467

                      4                      5                      6
                     B2                     A2                     A1
 Frequencies --    254.4009               381.8819               468.5789
 Red. masses --      3.5405                 2.6588                 3.9945
 Frc consts  --      0.1350                 0.2285                 0.5167
 IR Inten    --      1.5725                 0.0000                 4.6849

                      7                      8                      9
                     B2                     B1                     A2
 Frequencies --    597.0960               693.1768               707.9729
 Red. masses --      3.7939                 1.7349                 2.1051
 Frc consts  --      0.7969                 0.4912                 0.6217
 IR Inten    --      7.3484                13.0978                 0.0000

                     10                     11                     12
                     A1                     A2                     B1
 Frequencies --    722.0939               953.1599               954.6801
 Red. masses --      2.6317                 1.3431                 1.3285
 Frc consts  --      0.8085                 0.7190                 0.7134
 IR Inten    --      0.0416                 0.0000                97.2136

                     13                     14                     15
                     B1                     A2                     B2
 Frequencies --   1007.6189              1012.3917              1021.0859
 Red. masses --      1.1314                 1.1211                 1.6320
 Frc consts  --      0.6768                 0.6770                 1.0026
 IR Inten    --     26.8117                 0.0000                 0.5605

                     16                     17                     18
                     A1                     B2                     B2
 Frequencies --   1096.0977              1211.6769              1322.6755
 Red. masses --      1.4886                 2.6465                 1.3033
 Frc consts  --      1.0537                 2.2893                 1.3434
 IR Inten    --      0.0000                13.3485                 1.9240

                     19                     20                     21
                     A1                     A1                     B2
 Frequencies --   1325.8394              1444.0889              1462.5630
 Red. masses --      1.3002                 1.2267                 1.2906
 Frc consts  --      1.3466                 1.5072                 1.6266
 IR Inten    --      0.0593                 6.5243                 1.2819

                     22                     23                     24
                     A1                     B2                     A1
 Frequencies --   1647.0142              1671.0871              2290.2706
 Red. masses --      3.6211                 4.4771                11.9132
 Frc consts  --      5.7875                 7.3662                36.8172
 IR Inten    --      7.4001                33.7641                 0.0000

                     25                     26                     27
                     A1                     B2                     B2
 Frequencies --   3135.0379              3135.5239              3153.2100
 Red. masses --      1.0843                 1.0843                 1.0615
 Frc consts  --      6.2787                 6.2808                 6.2185
 IR Inten    --      6.5528                12.7579                 3.8423

                     28                     29                     30
                     A1                     B2                     A1
 Frequencies --   3153.2863              3242.1307              3242.2590
 Red. masses --      1.0614                 1.1174                 1.1174
 Frc consts  --      6.2184                 6.9204                 6.9209
 IR Inten    --      2.2082                 7.7942                 3.8092

 - Thermochemistry -
 -------------------
 Temperature   298.150 Kelvin.  Pressure   1.00000 Atm.
 Atom     1 has atomic number  6 and mass  12.00000

 Molecular mass:    78.04695 amu.
 Principal axes and moments of inertia in atomic units:
                           1         2         3
     Eigenvalues --   101.491081250.153441351.64452
           X            0.00000   0.00000   1.00000
           Y            1.00000   0.00000  -0.00000
           Z           -0.00000   1.00000  -0.00000
 This molecule is an asymmetric top.
 Rotational symmetry number  2.
 Rotational temperatures (Kelvin)      0.85341     0.06928     0.06408
 Rotational constants (GHZ):          17.78226     1.44362     1.33522
 Zero-point vibrational energy     249119.8 (Joules/Mol)
                                   59.54105 (Kcal/Mol)
 Warning -- explicit consideration of   7 degrees of freedom as
           vibrations may cause significant error
 Vibrational temperatures:     97.55   147.37   248.12   366.03   549.44
          (Kelvin)            674.18   859.09   997.33  1018.62  1038.93
                             1371.38  1373.57  1449.74  1456.61  1469.11
                             1577.04  1743.33  1903.04  1907.59  2077.72
                             2104.30  2369.69  2404.32  3295.19  4510.62
                             4511.32  4536.77  4536.88  4664.70  4664.89

 Zero-point correction=                           0.094885 (Hartree/Particle)
 Thermal correction to Energy=                    0.101669
 Thermal correction to Enthalpy=                  0.102613
 Thermal correction to Gibbs Free Energy=         0.064707
 Sum of electronic and zero-point Energies=           -232.145432
 Sum of electronic and thermal Energies=              -232.138648
 Sum of electronic and thermal Enthalpies=            -232.137704
 Sum of electronic and thermal Free Energies=         -232.175610

                     E (Thermal)             CV                S
                      KCal/Mol        Cal/Mol-Kelvin    Cal/Mol-Kelvin
 Total                   63.798             22.789             79.780
 Electronic               0.000              0.000              0.000
 Translational            0.889              2.981             38.979
 Rotational               0.889              2.981             25.264
 Vibrational             62.021             16.827             15.536
 Vibration     1          0.598              1.970              4.216
 Vibration     2          0.604              1.947              3.408
 Vibration     3          0.626              1.876              2.409
 Vibration     4          0.665              1.755              1.700
 Vibration     5          0.751              1.509              1.032
 Vibration     6          0.826              1.320              0.742
 Vibration     7          0.955              1.038              0.455

 Optimization completed.
    -- Stationary point found.
 Normal termination of Gaussian 16 at Tue Oct  3 14:27:45 2023.
 Gaussian 16:  ES64L-G16RevB.01 20-Dec-2017

 ---------------------------------
 # rohf/gen geom=check guess=check
 ---------------------------------

 --------------------------------------
 cis-divinylacetylene, ROHF/cc-pVTZ-F12
 --------------------------------------
 Structure from the checkpoint file:  "ch2chccchch2.chk"
 Charge =  0 Multiplicity = 1

                         Standard orientation:
 ---------------------------------------------------------------------
 Center     Atomic      Atomic             Coordinates (Angstroms)
 Number     Number       Type             X           Y           Z
 ---------------------------------------------------------------------
      1          6           0        0.000000    0.604528   -0.384314
      2          6           0       -0.000000   -0.604528   -0.384314
      3          6           0        0.000000    2.019103   -0.416413
      4          6           0       -0.000000   -2.019103   -0.416413
      5          6           0        0.000000    2.807415    0.663378
      6          6           0       -0.000000   -2.807415    0.663378
      7          1           0        0.000000    3.883287    0.562885
      8          1           0       -0.000000   -3.883287    0.562885
      9          1           0        0.000000    2.398443    1.664035
     10          1           0       -0.000000   -2.398443    1.664035
     11          1           0        0.000000    2.471905   -1.402827
     12          1           0       -0.000000   -2.471905   -1.402827
 ---------------------------------------------------------------------

 SCF Done:  E(ROHF) =  -230.692763917     A.U. after   11 cycles

 The electronic state is 1-A1.
 Alpha  occ. eigenvalues --  -11.25823 -11.25823 -11.24281 -11.24281 -11.23428
 Alpha  occ. eigenvalues --  -11.23062  -1.10204  -1.07205  -0.99079  -0.85900
 Alpha  occ. eigenvalues --   -0.81270  -0.69443  -0.67432  -0.62272  -0.62250
 Alpha  occ. eigenvalues --   -0.54264  -0.53699  -0.48565  -0.41109  -0.38588
 Alpha  occ. eigenvalues --   -0.31229
 Alpha virt. eigenvalues --    0.04543   0.04871   0.05114   0.06228   0.06456
 Alpha virt. eigenvalues --    0.06940   0.07925   0.09373   0.09378   0.10002
 Alpha virt. eigenvalues --    0.10324   0.11120   0.11405   0.12777   0.12852

 Mulliken charges and spin densities:
               1          2
     1  C    0.016495   0.000000
     2  C    0.016495   0.000000
     3  C   -0.201281   0.000000
     4  C   -0.201281   0.000000
     5  C   -0.299467   0.000000
     6  C   -0.299467   0.000000
     7  H    0.161273   0.000000
     8  H    0.161273   0.000000
     9  H    0.157003   0.000000
    10  H    0.157003   0.000000
    11  H    0.165977   0.000000
    12  H    0.165977   0.000000
 Sum of Mulliken charges =  -0.00000   0.00000

 Dipole moment (field-independent basis, Debye):
    X=             -0.0000    Y=              0.0000    Z=              0.2345  Tot=              0.2345
 Quadrupole moment (field-independent basis, Debye-Ang):
   XX=            -40.9763   YY=            -27.2856   ZZ=            -33.3533
   XY=              0.0000   XZ=              0.0000   YZ=             -0.0000

 Normal termination of Gaussian 16 at Tue Oct  3 14:30:01 2023.
