 Gaussian 16, Revision B.01,
 Gaussian 16:  ES64L-G16RevB.01 20-Dec-2017

 --------------------
 # b3lyp/gen opt freq
 --------------------

 ----------------------------------------
 1,1,1,2-tetrachloroethane, B3LYP/pcseg-2
 ----------------------------------------
 Symbolic Z-matrix:
 Charge =  0 Multiplicity = 1

 SCF Done:  E(RB3LYP) =  -1918.37940278     A.U. after   13 cycles
 SCF Done:  E(RB3LYP) =  -1918.37941258     A.U. after    8 cycles
 SCF Done:  E(RB3LYP) =  -1918.37941383     A.U. after    7 cycles
 Optimization completed.
    -- Stationary point found.
 Normal termination of Gaussian 16 at Thu Jun 16 18:38:57 2022.

 ------------------------------------------------------------------
 #N Geom=AllCheck Guess=TCheck SCRF=Check GenChk RB3LYP/ChkBas Freq
 ------------------------------------------------------------------

 Structure from the checkpoint file:  "/wrk/irikura/Gau-766.chk"
 ----------------------------------------
 1,1,1,2-tetrachloroethane, B3LYP/pcseg-2
 ----------------------------------------
 Charge =  0 Multiplicity = 1

                         Standard orientation:
 ---------------------------------------------------------------------
 Center     Atomic      Atomic             Coordinates (Angstroms)
 Number     Number       Type             X           Y           Z
 ---------------------------------------------------------------------
      1          6           0        0.269571    0.278439   -0.000000
      2          6           0       -1.255558    0.373525    0.000000
      3         17           0       -2.082765   -1.211210    0.000000
      4         17           0        0.871810    1.978650   -0.000000
      5         17           0        0.871810   -0.552226    1.460618
      6         17           0        0.871810   -0.552226   -1.460618
      7          1           0       -1.569680    0.908712    0.890162
      8          1           0       -1.569680    0.908712   -0.890162
 ---------------------------------------------------------------------

 SCF Done:  E(RB3LYP) =  -1918.37941383     A.U. after    1 cycles

 The electronic state is 1-A'.
 Alpha  occ. eigenvalues -- -101.54376-101.54065-101.54065-101.52428 -10.37966
 Alpha  occ. eigenvalues --  -10.27393  -9.48896  -9.48594  -9.48594  -9.46942
 Alpha  occ. eigenvalues --   -7.25107  -7.24816  -7.24816  -7.24142  -7.24133
 Alpha  occ. eigenvalues --   -7.23833  -7.23833  -7.23823  -7.23823  -7.23138
 Alpha  occ. eigenvalues --   -7.22212  -7.22177  -0.96623  -0.87640  -0.85260
 Alpha  occ. eigenvalues --   -0.85223  -0.73985  -0.61623  -0.52559  -0.50901
 Alpha  occ. eigenvalues --   -0.49565  -0.45349  -0.43516  -0.36932  -0.36715
 Alpha  occ. eigenvalues --   -0.35078  -0.33760  -0.33437  -0.32444  -0.32419
 Alpha  occ. eigenvalues --   -0.31851
 Alpha virt. eigenvalues --   -0.05185  -0.03115  -0.00848   0.00771   0.03772
 Alpha virt. eigenvalues --    0.05821   0.08217   0.13755   0.15820   0.18066
 Alpha virt. eigenvalues --    0.18725   0.21591   0.21745   0.24764   0.25049

 Mulliken charges:
               1
     1  C    0.147358
     2  C   -0.040923
     3  Cl  -0.114345
     4  Cl  -0.073463
     5  Cl  -0.054337
     6  Cl  -0.054337
     7  H    0.095023
     8  H    0.095023
 Sum of Mulliken charges =  -0.00000

 Dipole moment (field-independent basis, Debye):
    X=             -0.7404    Y=              1.2687    Z=             -0.0000  Tot=              1.4689
 Quadrupole moment (field-independent basis, Debye-Ang):
   XX=            -63.7671   YY=            -62.7716   ZZ=            -62.1734
   XY=             -2.8892   XZ=              0.0000   YZ=              0.0000

  Exact polarizability:  66.501   8.389  77.326  -0.000  -0.000  67.705
 Approx polarizability:  93.823  10.526 124.833  -0.000  -0.000 108.318

                      1                      2                      3
                     A"                     A'                     A'
 Frequencies --    106.1408               150.6289               236.9240
 Red. masses --      8.9747                30.6942                26.0831
 Frc consts  --      0.0596                 0.4103                 0.8626
 IR Inten    --      1.1260                 0.6325                 0.0110

                      4                      5                      6
                     A"                     A'                     A"
 Frequencies --    238.6749               302.9837               331.3851
 Red. masses --      7.7903                20.4410                 3.6344
 Frc consts  --      0.2615                 1.1056                 0.2351
 IR Inten    --      0.6095                 0.9411                 1.7164

                      7                      8                      9
                     A'                     A'                     A"
 Frequencies --    372.7845               541.7547               689.4309
 Red. masses --     21.5879                 7.8155                 4.4872
 Frc consts  --      1.7676                 1.3515                 1.2566
 IR Inten    --      2.5169                22.2669               109.5661

                     10                     11                     12
                     A'                     A'                     A"
 Frequencies --    719.8755               789.1728               965.0965
 Red. masses --     11.8599                 6.8152                 1.6865
 Frc consts  --      3.6211                 2.5008                 0.9255
 IR Inten    --    154.0343                29.8058                49.0372

                     13                     14                     15
                     A'                     A"                     A'
 Frequencies --   1046.6819              1225.5400              1310.0463
 Red. masses --      7.4404                 1.0923                 1.1923
 Frc consts  --      4.8026                 0.9666                 1.2056
 IR Inten    --     13.9930                12.4443                13.5102

                     16                     17                     18
                     A'                     A'                     A"
 Frequencies --   1462.3334              3104.3844              3169.8601
 Red. masses --      1.0832                 1.0560                 1.1115
 Frc consts  --      1.3647                 5.9959                 6.5802
 IR Inten    --      5.4275                 5.2341                 0.1986

 - Thermochemistry -
 -------------------
 Temperature   298.150 Kelvin.  Pressure   1.00000 Atm.
 Atom     1 has atomic number  6 and mass  12.00000

 Molecular mass:   165.89106 amu.
 Principal axes and moments of inertia in atomic units:
                           1         2         3
     Eigenvalues --   986.913821677.961311768.09955
           X            0.77249   0.00000  -0.63502
           Y            0.63502   0.00000   0.77249
           Z            0.00000   1.00000  -0.00000
 This molecule is an asymmetric top.
 Rotational symmetry number  1.
 Warning -- assumption of classical behavior for rotation
           may cause significant error
 Rotational temperatures (Kelvin)      0.08776     0.05162     0.04899
 Rotational constants (GHZ):           1.82867     1.07556     1.02072
 Zero-point vibrational energy     100269.2 (Joules/Mol)
                                   23.96491 (Kcal/Mol)
 Warning -- explicit consideration of   8 degrees of freedom as
           vibrations may cause significant error
 Vibrational temperatures:    152.71   216.72   340.88   343.40   435.93
          (Kelvin)            476.79   536.35   779.46   991.94  1035.74
                             1135.44  1388.56  1505.94  1763.28  1884.86
                             2103.97  4466.52  4560.72

 Zero-point correction=                           0.038191 (Hartree/Particle)
 Thermal correction to Energy=                    0.045135
 Thermal correction to Enthalpy=                  0.046079
 Thermal correction to Gibbs Free Energy=         0.005363
 Sum of electronic and zero-point Energies=          -1918.341223
 Sum of electronic and thermal Energies=             -1918.334279
 Sum of electronic and thermal Enthalpies=           -1918.333335
 Sum of electronic and thermal Free Energies=        -1918.374051

                     E (Thermal)             CV                S
                      KCal/Mol        Cal/Mol-Kelvin    Cal/Mol-Kelvin
 Total                   28.322             22.814             85.693
 Electronic               0.000              0.000              0.000
 Translational            0.889              2.981             41.227
 Rotational               0.889              2.981             29.461
 Vibrational             26.545             16.852             15.006
 Vibration     1          0.605              1.944              3.338
 Vibration     2          0.618              1.902              2.664
 Vibration     3          0.656              1.784              1.826
 Vibration     4          0.657              1.781              1.813
 Vibration     5          0.694              1.668              1.400
 Vibration     6          0.714              1.613              1.253
 Vibration     7          0.744              1.528              1.068
 Vibration     8          0.897              1.158              0.562

 Optimization completed.
    -- Stationary point found.
 Normal termination of Gaussian 16 at Thu Jun 16 18:40:13 2022.
