 Gaussian 16, Revision B.01,
 Gaussian 16:  ES64L-G16RevB.01 20-Dec-2017

 --------------------
 # b3lyp/gen opt freq
 --------------------

 -----------------------------
 chloromethoxyl, B3LYP/pcseg-2
 -----------------------------
 Symbolic Z-matrix:
 Charge =  0 Multiplicity = 2

 SCF Done:  E(UB3LYP) =  -574.747226268     A.U. after   17 cycles
 SCF Done:  E(UB3LYP) =  -574.747259984     A.U. after    9 cycles
 SCF Done:  E(UB3LYP) =  -574.747262711     A.U. after    8 cycles
 Optimization completed.
    -- Stationary point found.
 Normal termination of Gaussian 16 at Thu Jun 16 12:12:06 2022.

 ------------------------------------------------------------------
 #N Geom=AllCheck Guess=TCheck SCRF=Check GenChk UB3LYP/ChkBas Freq
 ------------------------------------------------------------------

 Structure from the checkpoint file:  "/wrk/irikura/Gau-28250.chk"
 -----------------------------
 chloromethoxyl, B3LYP/pcseg-2
 -----------------------------
 Charge =  0 Multiplicity = 2

                         Standard orientation:
 ---------------------------------------------------------------------
 Center     Atomic      Atomic             Coordinates (Angstroms)
 Number     Number       Type             X           Y           Z
 ---------------------------------------------------------------------
      1          6           0        0.000000    0.824813    0.000000
      2          8           0       -1.285935    1.048400    0.000000
      3         17           0        0.549425   -0.934641    0.000000
      4          1           0        0.473632    1.276409    0.886477
      5          1           0        0.473632    1.276409   -0.886477
 ---------------------------------------------------------------------

 SCF Done:  E(UB3LYP) =  -574.747262711     A.U. after    1 cycles

 The electronic state is 2-A".
 Alpha  occ. eigenvalues -- -101.50753 -19.21518 -10.31207  -9.45312  -7.21400
 Alpha  occ. eigenvalues --   -7.20629  -7.20607  -1.09963  -0.84454  -0.67955
 Alpha  occ. eigenvalues --   -0.55200  -0.50546  -0.47530  -0.38357  -0.33896
 Alpha  occ. eigenvalues --   -0.32193  -0.31310
 Alpha virt. eigenvalues --   -0.01026   0.02554   0.04828   0.08086   0.12597
 Alpha virt. eigenvalues --    0.18912   0.23107   0.28111   0.28544   0.30141
 Alpha virt. eigenvalues --    0.30956   0.33585   0.35190   0.37432   0.39053

  Beta  occ. eigenvalues -- -101.50746 -19.19221 -10.31271  -9.45306  -7.21416
  Beta  occ. eigenvalues --   -7.20606  -7.20582  -1.05378  -0.83991  -0.66155
  Beta  occ. eigenvalues --   -0.50921  -0.48749  -0.46660  -0.32651  -0.31814
  Beta  occ. eigenvalues --   -0.31601
  Beta virt. eigenvalues --   -0.18938  -0.00803   0.02720   0.05265   0.08516
  Beta virt. eigenvalues --    0.12644   0.19998   0.23642   0.28794   0.28852
  Beta virt. eigenvalues --    0.30398   0.31470   0.33764   0.35615   0.37797

 Mulliken charges and spin densities:
               1          2
     1  C    0.234243  -0.046754
     2  O   -0.242590   0.831265
     3  Cl  -0.174427   0.011246
     4  H    0.091387   0.102122
     5  H    0.091387   0.102122
 Sum of Mulliken charges =   0.00000   1.00000

 Dipole moment (field-independent basis, Debye):
    X=              1.2676    Y=              1.9078    Z=             -0.0000  Tot=              2.2905
 Quadrupole moment (field-independent basis, Debye-Ang):
   XX=            -27.3487   YY=            -24.0219   ZZ=            -23.2542
   XY=              2.5484   XZ=             -0.0000   YZ=              0.0000

  Exact polarizability:  30.952  -7.981  37.030   0.000  -0.000  22.002
 Approx polarizability:  47.877 -14.208  54.721  -0.000   0.000  30.441

                      1                      2                      3
                     A'                     A"                     A'
 Frequencies --    382.0579               643.1628               650.5350
 Red. masses --     14.9146                 1.5741                 6.8908
 Frc consts  --      1.2827                 0.3837                 1.7182
 IR Inten    --      5.5635                 2.2148               163.3463

                      4                      5                      6
                     A"                     A'                     A'
 Frequencies --   1034.9719              1136.7686              1230.8096
 Red. masses --      1.0268                11.6188                 1.1219
 Frc consts  --      0.6480                 8.8461                 1.0014
 IR Inten    --      0.0511                49.7377                15.9173

                      7                      8                      9
                     A'                     A'                     A"
 Frequencies --   1306.9035              2917.3525              2947.9657
 Red. masses --      1.0660                 1.0479                 1.0939
 Frc consts  --      1.0728                 5.2549                 5.6013
 IR Inten    --     55.8228                38.7930                 2.8157

 - Thermochemistry -
 -------------------
 Temperature   298.150 Kelvin.  Pressure   1.00000 Atm.
 Atom     1 has atomic number  6 and mass  12.00000

 Molecular mass:    64.97942 amu.
 Principal axes and moments of inertia in atomic units:
                           1         2         3
     Eigenvalues --    36.23090 320.93411 345.85202
           X           -0.60201   0.79849   0.00000
           Y            0.79849   0.60201   0.00000
           Z           -0.00000   0.00000   1.00000
 This molecule is an asymmetric top.
 Rotational symmetry number  1.
 Rotational temperatures (Kelvin)      2.39061     0.26988     0.25044
 Rotational constants (GHZ):          49.81221     5.62340     5.21825
 Zero-point vibrational energy      73274.4 (Joules/Mol)
                                   17.51301 (Kcal/Mol)
 Warning -- explicit consideration of   1 degrees of freedom as
           vibrations may cause significant error
 Vibrational temperatures:    549.70   925.37   935.97  1489.09  1635.56
          (Kelvin)           1770.86  1880.34  4197.42  4241.47

 Zero-point correction=                           0.027909 (Hartree/Particle)
 Thermal correction to Energy=                    0.031420
 Thermal correction to Enthalpy=                  0.032364
 Thermal correction to Gibbs Free Energy=         0.001621
 Sum of electronic and zero-point Energies=           -574.719354
 Sum of electronic and thermal Energies=              -574.715843
 Sum of electronic and thermal Enthalpies=            -574.714899
 Sum of electronic and thermal Free Energies=         -574.745641

                     E (Thermal)             CV                S
                      KCal/Mol        Cal/Mol-Kelvin    Cal/Mol-Kelvin
 Total                   19.716             10.260             64.704
 Electronic               0.000              0.000              1.377
 Translational            0.889              2.981             38.433
 Rotational               0.889              2.981             22.913
 Vibrational             17.939              4.298              1.980
 Vibration     1          0.752              1.508              1.031

                           ! Non-Optimized Parameters !
 Normal termination of Gaussian 16 at Thu Jun 16 12:12:29 2022.
