 Gaussian 16, Revision B.01,
 Gaussian 16:  ES64L-G16RevB.01 20-Dec-2017

 --------------------
 # b3lyp/gen opt freq
 --------------------

 -----------------------------
 chloromethanol, B3LYP/pcseg-2
 -----------------------------
 Symbolic Z-matrix:
 Charge =  0 Multiplicity = 1

 SCF Done:  E(RB3LYP) =  -575.420868948     A.U. after   12 cycles
 SCF Done:  E(RB3LYP) =  -575.420958066     A.U. after   10 cycles
 SCF Done:  E(RB3LYP) =  -575.420967985     A.U. after    8 cycles
 SCF Done:  E(RB3LYP) =  -575.420970709     A.U. after    8 cycles
 Optimization completed.
    -- Stationary point found.
 Normal termination of Gaussian 16 at Thu Jun 16 12:03:06 2022.

 ------------------------------------------------------------------
 #N Geom=AllCheck Guess=TCheck SCRF=Check GenChk RB3LYP/ChkBas Freq
 ------------------------------------------------------------------

 Structure from the checkpoint file:  "/wrk/irikura/Gau-23226.chk"
 -----------------------------
 chloromethanol, B3LYP/pcseg-2
 -----------------------------
 Charge =  0 Multiplicity = 1

                         Standard orientation:
 ---------------------------------------------------------------------
 Center     Atomic      Atomic             Coordinates (Angstroms)
 Number     Number       Type             X           Y           Z
 ---------------------------------------------------------------------
      1          6           0       -0.579950    0.590081    0.043212
      2          8           0       -1.567610   -0.355243   -0.118565
      3         17           0        1.110170   -0.126579   -0.009673
      4          1           0       -0.633932    1.278494   -0.791157
      5          1           0       -0.624826    1.110924    0.996806
      6          1           0       -1.593553   -0.936125    0.648044
 ---------------------------------------------------------------------

 SCF Done:  E(RB3LYP) =  -575.420970709     A.U. after    1 cycles

 The electronic state is 1-A.
 Alpha  occ. eigenvalues -- -101.49953 -19.16582 -10.29285  -9.44518  -7.20627
 Alpha  occ. eigenvalues --   -7.19833  -7.19788  -1.07626  -0.83918  -0.68817
 Alpha  occ. eigenvalues --   -0.55634  -0.48940  -0.46122  -0.38598  -0.32995
 Alpha  occ. eigenvalues --   -0.31121  -0.30370
 Alpha virt. eigenvalues --   -0.00738   0.01606   0.04195   0.06185   0.10842
 Alpha virt. eigenvalues --    0.14174   0.20123   0.25338   0.25912   0.28409
 Alpha virt. eigenvalues --    0.31507   0.32102   0.33701   0.34532   0.35347

 Mulliken charges:
               1
     1  C    0.232942
     2  O   -0.360315
     3  Cl  -0.191518
     4  H    0.069769
     5  H    0.049882
     6  H    0.199240
 Sum of Mulliken charges =  -0.00000

 Dipole moment (field-independent basis, Debye):
    X=             -1.2660    Y=              0.6886    Z=              1.3974  Tot=              2.0074
 Quadrupole moment (field-independent basis, Debye-Ang):
   XX=            -27.7575   YY=            -23.2241   ZZ=            -24.2637
   XY=              0.1888   XZ=             -2.4787   YZ=             -1.6283

  Exact polarizability:  38.775  -2.209  26.612  -0.784  -0.556  23.913
 Approx polarizability:  55.108  -4.221  36.748  -0.678  -1.050  33.607

                      1                      2                      3
                      A                      A                      A
 Frequencies --    338.2163               433.4441               649.7732
 Red. masses --      1.9924                 1.9720                 6.6859
 Frc consts  --      0.1343                 0.2183                 1.6632
 IR Inten    --     71.1649                80.6068               129.3376

                      4                      5                      6
                      A                      A                      A
 Frequencies --    959.1635              1107.0530              1189.9820
 Red. masses --      1.2538                 5.8600                 1.0761
 Frc consts  --      0.6796                 4.2314                 0.8978
 IR Inten    --     16.3316               236.2877                 5.9886

                      7                      8                      9
                      A                      A                      A
 Frequencies --   1339.0516              1397.8031              1507.7657
 Red. masses --      1.1285                 1.2292                 1.0980
 Frc consts  --      1.1922                 1.4151                 1.4706
 IR Inten    --     29.9514                39.0390                 1.7376

                     10                     11                     12
                      A                      A                      A
 Frequencies --   3078.0428              3172.6664              3811.2496
 Red. masses --      1.0602                 1.1096                 1.0661
 Frc consts  --      5.9184                 6.5804                 9.1240
 IR Inten    --     28.6843                 5.5721                53.6259

 - Thermochemistry -
 -------------------
 Temperature   298.150 Kelvin.  Pressure   1.00000 Atm.
 Atom     1 has atomic number  6 and mass  12.00000

 Molecular mass:    65.98724 amu.
 Principal axes and moments of inertia in atomic units:
                           1         2         3
     Eigenvalues --    45.61429 327.93818 357.48294
           X            0.99991  -0.00046  -0.01356
           Y           -0.00034   0.99825  -0.05907
           Z            0.01357   0.05907   0.99816
 This molecule is an asymmetric top.
 Rotational symmetry number  1.
 Rotational temperatures (Kelvin)      1.89883     0.26412     0.24229
 Rotational constants (GHZ):          39.56526     5.50330     5.04847
 Zero-point vibrational energy     113550.8 (Joules/Mol)
                                   27.13929 (Kcal/Mol)
 Warning -- explicit consideration of   2 degrees of freedom as
           vibrations may cause significant error
 Vibrational temperatures:    486.62   623.63   934.88  1380.02  1592.80
          (Kelvin)           1712.12  1926.60  2011.13  2169.34  4428.62
                             4564.76  5483.54

 Zero-point correction=                           0.043249 (Hartree/Particle)
 Thermal correction to Energy=                    0.046976
 Thermal correction to Enthalpy=                  0.047920
 Thermal correction to Gibbs Free Energy=         0.017330
 Sum of electronic and zero-point Energies=           -575.377721
 Sum of electronic and thermal Energies=              -575.373995
 Sum of electronic and thermal Enthalpies=            -575.373051
 Sum of electronic and thermal Free Energies=         -575.403640

                     E (Thermal)             CV                S
                      KCal/Mol        Cal/Mol-Kelvin    Cal/Mol-Kelvin
 Total                   29.478             11.106             64.381
 Electronic               0.000              0.000              0.000
 Translational            0.889              2.981             38.479
 Rotational               0.889              2.981             23.196
 Vibrational             27.700              5.144              2.706
 Vibration     1          0.719              1.599              1.221
 Vibration     2          0.794              1.397              0.847

 Optimization completed.
    -- Stationary point found.
 Normal termination of Gaussian 16 at Thu Jun 16 12:03:34 2022.
