 Gaussian 16, Revision B.01,
 Gaussian 16:  ES64L-G16RevB.01 20-Dec-2017

 --------------------
 # b3lyp/gen opt freq
 --------------------

 -----------------------------------
 1,1-dichloroethylene, B3LYP/pcseg-2
 -----------------------------------
 Symbolic Z-matrix:
 Charge =  0 Multiplicity = 1

 SCF Done:  E(RB3LYP) =  -997.892085587     A.U. after   13 cycles
 SCF Done:  E(RB3LYP) =  -997.892119513     A.U. after    8 cycles
 Optimization completed.
    -- Stationary point found.
 Normal termination of Gaussian 16 at Thu Jun 16 09:06:02 2022.

 ------------------------------------------------------------------
 #N Geom=AllCheck Guess=TCheck SCRF=Check GenChk RB3LYP/ChkBas Freq
 ------------------------------------------------------------------

 Structure from the checkpoint file:  "/wrk/irikura/Gau-20565.chk"
 -----------------------------------
 1,1-dichloroethylene, B3LYP/pcseg-2
 -----------------------------------
 Charge =  0 Multiplicity = 1

                         Standard orientation:
 ---------------------------------------------------------------------
 Center     Atomic      Atomic             Coordinates (Angstroms)
 Number     Number       Type             X           Y           Z
 ---------------------------------------------------------------------
      1          6           0       -0.000000    0.000000    1.745600
      2          6           0       -0.000000    0.000000    0.424094
      3          1           0        0.000000    0.929475    2.293358
      4          1           0       -0.000000   -0.929475    2.293358
      5         17           0        0.000000    1.457469   -0.517791
      6         17           0       -0.000000   -1.457469   -0.517791
 ---------------------------------------------------------------------

 SCF Done:  E(RB3LYP) =  -997.892119513     A.U. after    1 cycles

 The electronic state is 1-A1.
 Alpha  occ. eigenvalues -- -101.53544-101.53544 -10.30023 -10.19770  -9.48056
 Alpha  occ. eigenvalues --   -9.48056  -7.24238  -7.24238  -7.23334  -7.23334
 Alpha  occ. eigenvalues --   -7.23296  -7.23296  -0.92798  -0.84740  -0.76366
 Alpha  occ. eigenvalues --   -0.57978  -0.50488  -0.48320  -0.41884  -0.41284
 Alpha  occ. eigenvalues --   -0.35346  -0.34140  -0.32342  -0.27383
 Alpha virt. eigenvalues --   -0.03306  -0.01017   0.02113   0.02878   0.08733
 Alpha virt. eigenvalues --    0.09274   0.17072   0.17112   0.18388   0.21787
 Alpha virt. eigenvalues --    0.24114   0.26193   0.27527   0.30556   0.32373

 Mulliken charges:
               1
     1  C   -0.087196
     2  C    0.072916
     3  H    0.081771
     4  H    0.081771
     5  Cl  -0.074631
     6  Cl  -0.074631
 Sum of Mulliken charges =  -0.00000

 Dipole moment (field-independent basis, Debye):
    X=              0.0000    Y=              0.0000    Z=              1.3638  Tot=              1.3638
 Quadrupole moment (field-independent basis, Debye-Ang):
   XX=            -38.7019   YY=            -36.6191   ZZ=            -34.2301
   XY=             -0.0000   XZ=             -0.0000   YZ=             -0.0000

  Exact polarizability:  29.220  -0.000  54.545   0.000   0.000  57.653
 Approx polarizability:  44.078   0.000  80.335   0.000   0.000  91.349

                      1                      2                      3
                     A1                     B2                     B1
 Frequencies --    297.6199               379.1188               476.6303
 Red. masses --     19.0122                 2.9764                 6.2244
 Frc consts  --      0.9922                 0.2521                 0.8331
 IR Inten    --      0.0035                 0.2843                 6.9114

                      4                      5                      6
                     A1                     A2                     B2
 Frequencies --    597.3334               695.8319               766.6930
 Red. masses --      9.1473                 1.0193                 3.4258
 Frc consts  --      1.9230                 0.2908                 1.1865
 IR Inten    --     16.7250                 0.0000               107.3447

                      7                      8                      9
                     B1                     B2                     A1
 Frequencies --    906.4110              1097.2060              1407.2306
 Red. masses --      1.3451                 1.8944                 1.1733
 Frc consts  --      0.6511                 1.3437                 1.3690
 IR Inten    --     47.7111                94.7879                 0.3004

                     10                     11                     12
                     A1                     A1                     B2
 Frequencies --   1661.5718              3173.4012              3267.1968
 Red. masses --      5.3401                 1.0589                 1.1186
 Frc consts  --      8.6863                 6.2830                 7.0349
 IR Inten    --     86.6942                 1.9810                 0.0708

 - Thermochemistry -
 -------------------
 Temperature   298.150 Kelvin.  Pressure   1.00000 Atm.
 Atom     1 has atomic number  6 and mass  12.00000

 Molecular mass:    95.95336 amu.
 Principal axes and moments of inertia in atomic units:
                           1         2         3
     Eigenvalues --   241.95507 536.74567 778.70073
           X            0.00000   0.00000   1.00000
           Y            1.00000   0.00000  -0.00000
           Z            0.00000   1.00000   0.00000
 This molecule is an asymmetric top.
 Rotational symmetry number  2.
 Rotational temperatures (Kelvin)      0.35798     0.16137     0.11123
 Rotational constants (GHZ):           7.45899     3.36238     2.31763
 Zero-point vibrational energy      88082.5 (Joules/Mol)
                                   21.05222 (Kcal/Mol)
 Warning -- explicit consideration of   4 degrees of freedom as
           vibrations may cause significant error
 Vibrational temperatures:    428.21   545.47   685.76   859.43  1001.15
          (Kelvin)           1103.10  1304.12  1578.63  2024.69  2390.63
                             4565.82  4700.77

 Zero-point correction=                           0.033549 (Hartree/Particle)
 Thermal correction to Energy=                    0.037829
 Thermal correction to Enthalpy=                  0.038773
 Thermal correction to Gibbs Free Energy=         0.006107
 Sum of electronic and zero-point Energies=           -997.858571
 Sum of electronic and thermal Energies=              -997.854291
 Sum of electronic and thermal Enthalpies=            -997.853347
 Sum of electronic and thermal Free Energies=         -997.886012

                     E (Thermal)             CV                S
                      KCal/Mol        Cal/Mol-Kelvin    Cal/Mol-Kelvin
 Total                   23.738             13.957             68.750
 Electronic               0.000              0.000              0.000
 Translational            0.889              2.981             39.595
 Rotational               0.889              2.981             24.739
 Vibrational             21.960              7.996              4.416
 Vibration     1          0.691              1.678              1.430
 Vibration     2          0.749              1.515              1.043
 Vibration     3          0.833              1.302              0.719
 Vibration     4          0.955              1.037              0.454

 Optimization completed.
    -- Stationary point found.
 Normal termination of Gaussian 16 at Thu Jun 16 09:06:23 2022.
