 Gaussian 16, Revision B.01,
 Gaussian 16:  ES64L-G16RevB.01 20-Dec-2017

 --------------------
 # b3lyp/gen opt freq
 --------------------

 --------------------------
 cyanomethyl, B3LYP/pcseg-2
 --------------------------
 Symbolic Z-matrix:
 Charge =  0 Multiplicity = 2

 SCF Done:  E(UB3LYP) =  -132.149478032     A.U. after   16 cycles
 SCF Done:  E(UB3LYP) =  -132.149567223     A.U. after   11 cycles
 SCF Done:  E(UB3LYP) =  -132.149569397     A.U. after   10 cycles
 Optimization completed.
    -- Stationary point found.
 Normal termination of Gaussian 16 at Wed Jun 15 16:02:08 2022.

 ------------------------------------------------------------------
 #N Geom=AllCheck Guess=TCheck SCRF=Check GenChk UB3LYP/ChkBas Freq
 ------------------------------------------------------------------

 Structure from the checkpoint file:  "/wrk/irikura/Gau-18725.chk"
 --------------------------
 cyanomethyl, B3LYP/pcseg-2
 --------------------------
 Charge =  0 Multiplicity = 2

                         Standard orientation:
 ---------------------------------------------------------------------
 Center     Atomic      Atomic             Coordinates (Angstroms)
 Number     Number       Type             X           Y           Z
 ---------------------------------------------------------------------
      1          6           0       -0.000000    0.000000    0.187275
      2          7           0       -0.000000    0.000000    1.352970
      3          6           0        0.000000   -0.000000   -1.188613
      4          1           0        0.000000    0.932688   -1.731380
      5          1           0       -0.000000   -0.932688   -1.731380
 ---------------------------------------------------------------------

 SCF Done:  E(UB3LYP) =  -132.149569397     A.U. after    1 cycles

 The electronic state is 2-B1.
 Alpha  occ. eigenvalues --  -14.34044 -10.24701 -10.22672  -0.93371  -0.78849
 Alpha  occ. eigenvalues --   -0.54455  -0.49832  -0.40782  -0.39210  -0.35339
 Alpha  occ. eigenvalues --   -0.27427
 Alpha virt. eigenvalues --    0.00109   0.00611   0.05667   0.06266   0.08373
 Alpha virt. eigenvalues --    0.13384   0.14788   0.19935   0.21057   0.22122
 Alpha virt. eigenvalues --    0.24230   0.31176   0.31664   0.35313   0.36709

  Beta  occ. eigenvalues --  -14.33187 -10.23480 -10.22993  -0.91972  -0.76045
  Beta  occ. eigenvalues --   -0.53610  -0.49167  -0.38008  -0.37255  -0.34844
  Beta virt. eigenvalues --   -0.14349   0.00262   0.00987   0.06365   0.07994
  Beta virt. eigenvalues --    0.08471   0.13478   0.16816   0.19775   0.22117
  Beta virt. eigenvalues --    0.23283   0.25687   0.31812   0.32047   0.35696

 Mulliken charges and spin densities:
               1          2
     1  C    0.093029  -0.212745
     2  N   -0.179371   0.408557
     3  C   -0.107924   0.865599
     4  H    0.097133  -0.030706
     5  H    0.097133  -0.030706
 Sum of Mulliken charges =  -0.00000   1.00000

 Dipole moment (field-independent basis, Debye):
    X=             -0.0000    Y=             -0.0000    Z=             -3.5037  Tot=              3.5037
 Quadrupole moment (field-independent basis, Debye-Ang):
   XX=            -18.4090   YY=            -16.4524   ZZ=            -19.2001
   XY=              0.0000   XZ=              0.0000   YZ=              0.0000

  Exact polarizability:  18.058   0.000  19.641  -0.000   0.000  44.944
 Approx polarizability:  23.622   0.000  25.942  -0.000  -0.000  74.991

                      1                      2                      3
                     B2                     B1                     B1
 Frequencies --    386.7535               436.0122               684.5174
 Red. masses --      3.2434                 5.2103                 1.4055
 Frc consts  --      0.2858                 0.5836                 0.3880
 IR Inten    --      0.4900                 0.1071                51.8066

                      4                      5                      6
                     B2                     A1                     A1
 Frequencies --   1035.4705              1061.1646              1448.8772
 Red. masses --      1.5005                 4.4292                 1.1909
 Frc consts  --      0.9479                 2.9386                 1.4730
 IR Inten    --      0.0556                 6.8488                 3.2530

                      7                      8                      9
                     A1                     A1                     B2
 Frequencies --   2128.0819              3165.5246              3267.8831
 Red. masses --     12.5263                 1.0501                 1.1193
 Frc consts  --     33.4233                 6.1995                 7.0423
 IR Inten    --      2.0054                 0.2627                 1.5689

 - Thermochemistry -
 -------------------
 Temperature   298.150 Kelvin.  Pressure   1.00000 Atm.
 Atom     1 has atomic number  6 and mass  12.00000

 Molecular mass:    40.01872 amu.
 Principal axes and moments of inertia in atomic units:
                           1         2         3
     Eigenvalues --     6.26160 174.10398 180.36559
           X            0.00000   0.00000   1.00000
           Y            0.00000   1.00000   0.00000
           Z            1.00000   0.00000   0.00000
 This molecule is an asymmetric top.
 Rotational symmetry number  2.
 Rotational temperatures (Kelvin)     13.83254     0.49748     0.48021
 Rotational constants (GHZ):         288.22342    10.36588    10.00602
 Zero-point vibrational energy      81431.5 (Joules/Mol)
                                   19.46260 (Kcal/Mol)
 Warning -- explicit consideration of   2 degrees of freedom as
           vibrations may cause significant error
 Vibrational temperatures:    556.45   627.32   984.87  1489.81  1526.78
          (Kelvin)           2084.61  3061.84  4554.48  4701.75

 Zero-point correction=                           0.031016 (Hartree/Particle)
 Thermal correction to Energy=                    0.034633
 Thermal correction to Enthalpy=                  0.035577
 Thermal correction to Gibbs Free Energy=         0.007427
 Sum of electronic and zero-point Energies=           -132.118554
 Sum of electronic and thermal Energies=              -132.114936
 Sum of electronic and thermal Enthalpies=            -132.113992
 Sum of electronic and thermal Free Energies=         -132.142143

                     E (Thermal)             CV                S
                      KCal/Mol        Cal/Mol-Kelvin    Cal/Mol-Kelvin
 Total                   21.733             10.463             59.248
 Electronic               0.000              0.000              1.377
 Translational            0.889              2.981             36.988
 Rotational               0.889              2.981             18.537
 Vibrational             19.955              4.501              2.346
 Vibration     1          0.755              1.498              1.013
 Vibration     2          0.796              1.392              0.839

 Optimization completed.
    -- Stationary point found.
 Normal termination of Gaussian 16 at Wed Jun 15 16:02:25 2022.
