 Gaussian 16, Revision B.01,
 Gaussian 16:  ES64L-G16RevB.01 20-Dec-2017

 --------------------
 # b3lyp/gen opt freq
 --------------------

 -----------------------------------
 1,1-difluoroethylene, B3LYP/pcseg-2
 -----------------------------------
 Symbolic Z-matrix:
 Charge =  0 Multiplicity = 1

 SCF Done:  E(RB3LYP) =  -277.190354980     A.U. after   12 cycles
 SCF Done:  E(RB3LYP) =  -277.190366245     A.U. after    8 cycles
 SCF Done:  E(RB3LYP) =  -277.190367013     A.U. after    7 cycles
 Optimization completed.
    -- Stationary point found.
 Normal termination of Gaussian 16 at Wed Jun 15 20:53:55 2022.

 ------------------------------------------------------------------
 #N Geom=AllCheck Guess=TCheck SCRF=Check GenChk RB3LYP/ChkBas Freq
 ------------------------------------------------------------------

 Structure from the checkpoint file:  "/wrk/irikura/Gau-19467.chk"
 -----------------------------------
 1,1-difluoroethylene, B3LYP/pcseg-2
 -----------------------------------
 Charge =  0 Multiplicity = 1

                         Standard orientation:
 ---------------------------------------------------------------------
 Center     Atomic      Atomic             Coordinates (Angstroms)
 Number     Number       Type             X           Y           Z
 ---------------------------------------------------------------------
      1          6           0       -0.000000    0.000000    1.382476
      2          6           0       -0.000000    0.000000    0.067407
      3          1           0       -0.000000    0.933869    1.918271
      4          1           0       -0.000000   -0.933869    1.918271
      5          9           0        0.000000    1.080635   -0.696435
      6          9           0       -0.000000   -1.080635   -0.696435
 ---------------------------------------------------------------------

 SCF Done:  E(RB3LYP) =  -277.190367013     A.U. after    1 cycles

 The electronic state is 1-A1.
 Alpha  occ. eigenvalues --  -24.72616 -24.72616 -10.35559 -10.18643  -1.30211
 Alpha  occ. eigenvalues --   -1.24173  -0.79763  -0.65531  -0.59516  -0.53861
 Alpha  occ. eigenvalues --   -0.53692  -0.46294  -0.45990  -0.44983  -0.42649
 Alpha  occ. eigenvalues --   -0.28148
 Alpha virt. eigenvalues --    0.00195   0.02389   0.05841   0.08011   0.11330
 Alpha virt. eigenvalues --    0.13581   0.15955   0.19846   0.22721   0.23670
 Alpha virt. eigenvalues --    0.25191   0.30918   0.32255   0.37256   0.40371

 Mulliken charges:
               1
     1  C   -0.180615
     2  C    0.513123
     3  H    0.075761
     4  H    0.075761
     5  F   -0.242016
     6  F   -0.242016
 Sum of Mulliken charges =  -0.00000

 Dipole moment (field-independent basis, Debye):
    X=              0.0000    Y=             -0.0000    Z=              1.3159  Tot=              1.3159
 Quadrupole moment (field-independent basis, Debye-Ang):
   XX=            -22.7321   YY=            -22.4314   ZZ=            -20.7444
   XY=             -0.0000   XZ=             -0.0000   YZ=             -0.0000

  Exact polarizability:  18.487  -0.000  24.093   0.000   0.000  34.808
 Approx polarizability:  24.533   0.000  32.165   0.000   0.000  52.233

                      1                      2                      3
                     B2                     A1                     B1
 Frequencies --    442.2137               549.5284               630.5229
 Red. masses --      2.5518                12.5338                 6.6373
 Frc consts  --      0.2940                 2.2301                 1.5547
 IR Inten    --      0.8153                 4.4451                 0.0009

                      4                      5                      6
                     A2                     B1                     A1
 Frequencies --    720.4564               836.0780               936.5848
 Red. masses --      1.0456                 1.3484                 6.8271
 Frc consts  --      0.3198                 0.5553                 3.5284
 IR Inten    --      0.0000                78.5030                79.6240

                      7                      8                      9
                     B2                     B2                     A1
 Frequencies --    961.2462              1296.4854              1414.5577
 Red. masses --      1.7873                 6.2586                 1.1596
 Frc consts  --      0.9730                 6.1982                 1.3671
 IR Inten    --     25.5304               248.1229                 3.9300

                     10                     11                     12
                     A1                     A1                     B2
 Frequencies --   1769.4215              3198.2955              3297.1043
 Red. masses --      7.6710                 1.0597                 1.1200
 Frc consts  --     14.1503                 6.3864                 7.1734
 IR Inten    --    315.0671                 6.6656                 0.2749

 - Thermochemistry -
 -------------------
 Temperature   298.150 Kelvin.  Pressure   1.00000 Atm.
 Atom     1 has atomic number  6 and mass  12.00000

 Molecular mass:    64.01246 amu.
 Principal axes and moments of inertia in atomic units:
                           1         2         3
     Eigenvalues --   164.73123 172.88897 337.62020
           X            0.00000   0.00000   1.00000
           Y            0.00000   1.00000   0.00000
           Z            1.00000   0.00000   0.00000
 This molecule is an asymmetric top.
 Rotational symmetry number  2.
 Rotational temperatures (Kelvin)      0.52579     0.50098     0.25654
 Rotational constants (GHZ):          10.95567    10.43873     5.34548
 Zero-point vibrational energy      96015.2 (Joules/Mol)
                                   22.94819 (Kcal/Mol)
 Warning -- explicit consideration of   2 degrees of freedom as
           vibrations may cause significant error
 Vibrational temperatures:    636.25   790.65   907.18  1036.58  1202.93
          (Kelvin)           1347.54  1383.02  1865.35  2035.23  2545.80
                             4601.63  4743.80

 Zero-point correction=                           0.036570 (Hartree/Particle)
 Thermal correction to Energy=                    0.040290
 Thermal correction to Enthalpy=                  0.041234
 Thermal correction to Gibbs Free Energy=         0.011161
 Sum of electronic and zero-point Energies=           -277.153797
 Sum of electronic and thermal Energies=              -277.150077
 Sum of electronic and thermal Enthalpies=            -277.149133
 Sum of electronic and thermal Free Energies=         -277.179206

                     E (Thermal)             CV                S
                      KCal/Mol        Cal/Mol-Kelvin    Cal/Mol-Kelvin
 Total                   25.283             11.984             63.296
 Electronic               0.000              0.000              0.000
 Translational            0.889              2.981             38.388
 Rotational               0.889              2.981             22.401
 Vibrational             23.505              6.023              2.506
 Vibration     1          0.802              1.378              0.820
 Vibration     2          0.905              1.141              0.545

 Optimization completed.
    -- Stationary point found.
 Normal termination of Gaussian 16 at Wed Jun 15 20:54:14 2022.
