 Gaussian 16, Revision B.01,
 Gaussian 16:  ES64L-G16RevB.01 20-Dec-2017

 --------------------
 # b3lyp/gen opt freq
 --------------------

 -----------------------------------
 1,2,3,5-hexatetraene, B3LYP/pcseg-2
 -----------------------------------
 Symbolic Z-matrix:
 Charge =  0 Multiplicity = 1

 SCF Done:  E(RB3LYP) =  -232.233110539     A.U. after   14 cycles
 SCF Done:  E(RB3LYP) =  -232.233170681     A.U. after    9 cycles
 SCF Done:  E(RB3LYP) =  -232.233171485     A.U. after    8 cycles
 SCF Done:  E(RB3LYP) =  -232.233171910     A.U. after    8 cycles
 SCF Done:  E(RB3LYP) =  -232.233172136     A.U. after    7 cycles
 Optimization completed.
    -- Stationary point found.
 Normal termination of Gaussian 16 at Tue Jun 21 10:17:28 2022.

 ------------------------------------------------------------------
 #N Geom=AllCheck Guess=TCheck SCRF=Check GenChk RB3LYP/ChkBas Freq
 ------------------------------------------------------------------

 Structure from the checkpoint file:  "/wrk/irikura/Gau-24800.chk"
 -----------------------------------
 1,2,3,5-hexatetraene, B3LYP/pcseg-2
 -----------------------------------
 Charge =  0 Multiplicity = 1

                         Standard orientation:
 ---------------------------------------------------------------------
 Center     Atomic      Atomic             Coordinates (Angstroms)
 Number     Number       Type             X           Y           Z
 ---------------------------------------------------------------------
      1          6           0        1.514602    2.789640   -0.000000
      2          6           0        0.741283    1.726084   -0.000000
      3          6           0        0.000000    0.708464   -0.000000
      4          6           0       -0.784169   -0.358982    0.000000
      5          6           0       -0.307092   -1.726451    0.000000
      6          6           0       -1.112939   -2.793352    0.000000
      7          1           0        2.593839    2.702172   -0.000000
      8          1           0        1.097760    3.789023   -0.000000
      9          1           0       -1.861319   -0.213254    0.000000
     10          1           0       -2.190639   -2.688650    0.000000
     11          1           0       -0.717836   -3.798922    0.000000
     12          1           0        0.768080   -1.862786   -0.000000
 ---------------------------------------------------------------------

 SCF Done:  E(RB3LYP) =  -232.233172136     A.U. after    1 cycles

 The electronic state is 1-A'.
 Alpha  occ. eigenvalues --  -10.20273 -10.19360 -10.19191 -10.19079 -10.18921
 Alpha  occ. eigenvalues --  -10.18008  -0.82904  -0.79069  -0.73830  -0.66666
 Alpha  occ. eigenvalues --   -0.58231  -0.52667  -0.48789  -0.46379  -0.45017
 Alpha  occ. eigenvalues --   -0.42563  -0.37682  -0.36862  -0.31191  -0.27029
 Alpha  occ. eigenvalues --   -0.23059
 Alpha virt. eigenvalues --   -0.07981   0.00919   0.01607   0.02492   0.03377
 Alpha virt. eigenvalues --    0.03947   0.06172   0.08275   0.09540   0.11052
 Alpha virt. eigenvalues --    0.11841   0.14824   0.15409   0.15532   0.18326

 Mulliken charges:
               1
     1  C   -0.141396
     2  C    0.012249
     3  C   -0.093427
     4  C    0.012169
     5  C    0.000988
     6  C   -0.110746
     7  H    0.068792
     8  H    0.069163
     9  H    0.041339
    10  H    0.045501
    11  H    0.053044
    12  H    0.042323
 Sum of Mulliken charges =  -0.00000

 Dipole moment (field-independent basis, Debye):
    X=             -0.0541    Y=             -0.2580    Z=              0.0000  Tot=              0.2636
 Quadrupole moment (field-independent basis, Debye-Ang):
   XX=            -32.3791   YY=            -31.0594   ZZ=            -40.3016
   XY=              2.1335   XZ=              0.0000   YZ=             -0.0000

  Exact polarizability:  84.830  59.474 161.932  -0.000   0.000  41.152
 Approx polarizability: 146.739 124.604 284.025   0.000   0.000  58.347

                      1                      2                      3
                     A"                     A'                     A"
 Frequencies --    108.2578               109.9199               251.5257
 Red. masses --      2.6623                 3.5461                 3.6609
 Frc consts  --      0.0184                 0.0252                 0.1365
 IR Inten    --      1.3670                 1.0950                 3.4284

                      4                      5                      6
                     A'                     A'                     A"
 Frequencies --    302.3889               389.3921               473.8270
 Red. masses --      2.9580                 2.9780                 1.1352
 Frc consts  --      0.1594                 0.2660                 0.1502
 IR Inten    --      7.2667                 4.7863                 2.7280

                      7                      8                      9
                     A'                     A"                     A"
 Frequencies --    522.3301               563.2592               698.4239
 Red. masses --      5.9386                 5.6696                 1.3525
 Frc consts  --      0.9546                 1.0598                 0.3887
 IR Inten    --      2.7272                 1.7929                 9.1143

                     10                     11                     12
                     A"                     A'                     A"
 Frequencies --    876.1143               881.7507               893.2027
 Red. masses --      1.3274                 2.2919                 1.3884
 Frc consts  --      0.6003                 1.0499                 0.6526
 IR Inten    --     50.0427                 0.4006                 2.2266

                     13                     14                     15
                     A"                     A'                     A"
 Frequencies --    945.9701              1009.2935              1033.4661
 Red. masses --      1.3856                 1.9734                 1.1247
 Frc consts  --      0.7305                 1.1844                 0.7077
 IR Inten    --     54.9076                 6.7832                20.3354

                     16                     17                     18
                     A'                     A'                     A'
 Frequencies --   1034.2309              1188.2196              1299.6060
 Red. masses --      1.4522                 2.3746                 1.2591
 Frc consts  --      0.9152                 1.9753                 1.2530
 IR Inten    --      0.3098                 1.1561                 8.3439

                     19                     20                     21
                     A'                     A'                     A'
 Frequencies --   1322.9655              1434.9385              1470.7195
 Red. masses --      1.3392                 1.2030                 1.2602
 Frc consts  --      1.3810                 1.4594                 1.6060
 IR Inten    --      1.1745                 0.4206                 9.4536

                     22                     23                     24
                     A'                     A'                     A'
 Frequencies --   1645.3223              1682.0987              2175.5581
 Red. masses --      4.3094                 5.5467                11.5080
 Frc consts  --      6.8734                 9.2468                32.0917
 IR Inten    --      0.1559                12.9173                25.8585

                     25                     26                     27
                     A'                     A'                     A'
 Frequencies --   3116.3316              3126.9598              3143.1444
 Red. masses --      1.0856                 1.0557                 1.0585
 Frc consts  --      6.2116                 6.0820                 6.1613
 IR Inten    --      3.4235                 1.0481                 6.2644

                     28                     29                     30
                     A'                     A'                     A'
 Frequencies --   3159.7697              3202.6514              3232.3252
 Red. masses --      1.0913                 1.1156                 1.1153
 Frc consts  --      6.4195                 6.7419                 6.8656
 IR Inten    --      5.9545                 1.5091                 8.5485

 - Thermochemistry -
 -------------------
 Temperature   298.150 Kelvin.  Pressure   1.00000 Atm.
 Atom     1 has atomic number  6 and mass  12.00000

 Molecular mass:    78.04695 amu.
 Principal axes and moments of inertia in atomic units:
                           1         2         3
     Eigenvalues --    58.099101328.143981386.24307
           X            0.40614   0.91381   0.00000
           Y            0.91381  -0.40614   0.00000
           Z           -0.00000  -0.00000   1.00000
 This molecule is an asymmetric top.
 Rotational symmetry number  1.
 Rotational temperatures (Kelvin)      1.49080     0.06521     0.06248
 Rotational constants (GHZ):          31.06315     1.35884     1.30189
 Zero-point vibrational energy     246992.8 (Joules/Mol)
                                   59.03268 (Kcal/Mol)
 Warning -- explicit consideration of   8 degrees of freedom as
           vibrations may cause significant error
 Vibrational temperatures:    155.76   158.15   361.89   435.07   560.25
          (Kelvin)            681.73   751.52   810.40  1004.88  1260.53
                             1268.64  1285.12  1361.04  1452.15  1486.93
                             1488.03  1709.58  1869.84  1903.45  2064.56
                             2116.04  2367.25  2420.16  3130.14  4483.71
                             4499.00  4522.28  4546.20  4607.90  4650.60

 Zero-point correction=                           0.094075 (Hartree/Particle)
 Thermal correction to Energy=                    0.100684
 Thermal correction to Enthalpy=                  0.101628
 Thermal correction to Gibbs Free Energy=         0.064113
 Sum of electronic and zero-point Energies=           -232.139098
 Sum of electronic and thermal Energies=              -232.132488
 Sum of electronic and thermal Enthalpies=            -232.131544
 Sum of electronic and thermal Free Energies=         -232.169059

                     E (Thermal)             CV                S
                      KCal/Mol        Cal/Mol-Kelvin    Cal/Mol-Kelvin
 Total                   63.180             23.044             78.958
 Electronic               0.000              0.000              0.000
 Translational            0.889              2.981             38.979
 Rotational               0.889              2.981             26.173
 Vibrational             61.403             17.082             13.806
 Vibration     1          0.606              1.943              3.300
 Vibration     2          0.606              1.941              3.270
 Vibration     3          0.664              1.760              1.720
 Vibration     4          0.694              1.669              1.404
 Vibration     5          0.757              1.493              1.002
 Vibration     6          0.831              1.308              0.727
 Vibration     7          0.877              1.201              0.605
 Vibration     8          0.919              1.111              0.517

 Optimization completed.
    -- Stationary point found.
 Normal termination of Gaussian 16 at Tue Jun 21 10:19:41 2022.
