 Gaussian 16, Revision B.01,
 Gaussian 16:  ES64L-G16RevB.01 20-Dec-2017

 --------------------
 # b3lyp/gen opt freq
 --------------------

 ---------------------------
 1-cyanovinyl, B3LYP/pcseg-2
 ---------------------------
 Symbolic Z-matrix:
 Charge =  0 Multiplicity = 2

 SCF Done:  E(UB3LYP) =  -170.227729323     A.U. after   20 cycles
 SCF Done:  E(UB3LYP) =  -170.227809692     A.U. after   13 cycles
 SCF Done:  E(UB3LYP) =  -170.227814099     A.U. after   13 cycles
 SCF Done:  E(UB3LYP) =  -170.227817700     A.U. after   14 cycles
 SCF Done:  E(UB3LYP) =  -170.227821524     A.U. after   13 cycles
 SCF Done:  E(UB3LYP) =  -170.227835783     A.U. after   16 cycles
 SCF Done:  E(UB3LYP) =  -170.227845203     A.U. after   13 cycles
 SCF Done:  E(UB3LYP) =  -170.227850784     A.U. after   13 cycles
 SCF Done:  E(UB3LYP) =  -170.227852106     A.U. after   11 cycles
 SCF Done:  E(UB3LYP) =  -170.227852549     A.U. after   11 cycles
 Optimization completed.
    -- Stationary point found.
 Normal termination of Gaussian 16 at Thu Jun 16 08:13:44 2022.

 ------------------------------------------------------------------
 #N Geom=AllCheck Guess=TCheck SCRF=Check GenChk UB3LYP/ChkBas Freq
 ------------------------------------------------------------------

 Structure from the checkpoint file:  "/wrk/irikura/Gau-14769.chk"
 ---------------------------
 1-cyanovinyl, B3LYP/pcseg-2
 ---------------------------
 Charge =  0 Multiplicity = 2

                         Standard orientation:
 ---------------------------------------------------------------------
 Center     Atomic      Atomic             Coordinates (Angstroms)
 Number     Number       Type             X           Y           Z
 ---------------------------------------------------------------------
      1          6           0        0.533370    1.724711   -0.000000
      2          6           0        0.000000    0.539731    0.000000
      3          6           0       -0.223847   -0.775007    0.000000
      4          7           0       -0.485322   -1.918450    0.000000
      5          1           0       -0.072431    2.625973    0.000000
      6          1           0        1.612552    1.866564   -0.000000
 ---------------------------------------------------------------------

 SCF Done:  E(UB3LYP) =  -170.227852549     A.U. after    1 cycles

 The electronic state is 2-A'.
 Alpha  occ. eigenvalues --  -14.34838 -10.25073 -10.23573 -10.23162  -0.93750
 Alpha  occ. eigenvalues --   -0.83202  -0.70788  -0.53579  -0.49839  -0.41041
 Alpha  occ. eigenvalues --   -0.40314  -0.39769  -0.31331  -0.25605
 Alpha virt. eigenvalues --   -0.08687   0.00698   0.03632   0.06495   0.07904
 Alpha virt. eigenvalues --    0.10094   0.11741   0.15460   0.16656   0.17972
 Alpha virt. eigenvalues --    0.21351   0.21793   0.23867   0.26387   0.28705

  Beta  occ. eigenvalues --  -14.33886 -10.23925 -10.23812 -10.23373  -0.92264
  Beta  occ. eigenvalues --   -0.81381  -0.69826  -0.52672  -0.48083  -0.40436
  Beta  occ. eigenvalues --   -0.38561  -0.37122  -0.30838
  Beta virt. eigenvalues --   -0.13293  -0.08221   0.00964   0.04561   0.06720
  Beta virt. eigenvalues --    0.09652   0.10683   0.12013   0.15233   0.17623
  Beta virt. eigenvalues --    0.18395   0.21297   0.22986   0.23945   0.27571

 Mulliken charges and spin densities:
               1          2
     1  C   -0.117982  -0.143746
     2  C    0.014217   0.773242
     3  C    0.117180  -0.193883
     4  N   -0.187095   0.448318
     5  H    0.086858   0.050316
     6  H    0.086822   0.065754
 Sum of Mulliken charges =  -0.00000   1.00000

 Dipole moment (field-independent basis, Debye):
    X=              1.1498    Y=              3.7781    Z=             -0.0000  Tot=              3.9492
 Quadrupole moment (field-independent basis, Debye-Ang):
   XX=            -22.1290   YY=            -25.2479   ZZ=            -23.9863
   XY=             -0.4360   XZ=              0.0000   YZ=              0.0000

  Exact polarizability:  29.336  14.148  74.888   0.000   0.000  22.468
 Approx polarizability:  42.306  29.313 138.657  -0.000  -0.000  30.345

                      1                      2                      3
                     A'                     A"                     A'
 Frequencies --     85.9932               246.6190               421.3884
 Red. masses --      3.5730                 3.7419                11.9570
 Frc consts  --      0.0156                 0.1341                 1.2509
 IR Inten    --      1.2827                 0.5163                 8.0490

                      4                      5                      6
                     A"                     A'                     A"
 Frequencies --    572.2968               882.0627               931.2770
 Red. masses --      7.3628                 5.8980                 1.3229
 Frc consts  --      1.4208                 2.7037                 0.6760
 IR Inten    --      7.0821                 1.2605                44.1767

                      7                      8                      9
                     A'                     A'                     A'
 Frequencies --    967.0186              1432.5656              1820.4510
 Red. masses --      1.3495                 1.1186                10.0531
 Frc consts  --      0.7435                 1.3525                19.6295
 IR Inten    --      0.5715                 4.8576                 5.0880

                     10                     11                     12
                     A'                     A'                     A'
 Frequencies --   2097.6133              3072.6439              3146.4018
 Red. masses --     12.4371                 1.0565                 1.1104
 Frc consts  --     32.2418                 5.8766                 6.4768
 IR Inten    --      2.0656                 0.2184                 0.0683

 - Thermochemistry -
 -------------------
 Temperature   298.150 Kelvin.  Pressure   1.00000 Atm.
 Atom     1 has atomic number  6 and mass  12.00000

 Molecular mass:    52.01872 amu.
 Principal axes and moments of inertia in atomic units:
                           1         2         3
     Eigenvalues --     7.25161 413.80870 421.06031
           X            0.26282   0.96485   0.00000
           Y            0.96485  -0.26282   0.00000
           Z           -0.00000  -0.00000   1.00000
 This molecule is an asymmetric top.
 Rotational symmetry number  1.
 Rotational temperatures (Kelvin)     11.94409     0.20931     0.20570
 Rotational constants (GHZ):         248.87440     4.36129     4.28618
 Zero-point vibrational energy      93765.3 (Joules/Mol)
                                   22.41044 (Kcal/Mol)
 Warning -- explicit consideration of   4 degrees of freedom as
           vibrations may cause significant error
 Vibrational temperatures:    123.73   354.83   606.28   823.41  1269.09
          (Kelvin)           1339.90  1391.32  2061.14  2619.22  3018.00
                             4420.85  4526.97

 Zero-point correction=                           0.035713 (Hartree/Particle)
 Thermal correction to Energy=                    0.040420
 Thermal correction to Enthalpy=                  0.041364
 Thermal correction to Gibbs Free Energy=         0.008960
 Sum of electronic and zero-point Energies=           -170.192139
 Sum of electronic and thermal Energies=              -170.187433
 Sum of electronic and thermal Enthalpies=            -170.186489
 Sum of electronic and thermal Free Energies=         -170.218893

                     E (Thermal)             CV                S
                      KCal/Mol        Cal/Mol-Kelvin    Cal/Mol-Kelvin
 Total                   25.364             13.729             68.200
 Electronic               0.000              0.000              1.377
 Translational            0.889              2.981             37.770
 Rotational               0.889              2.981             21.762
 Vibrational             23.586              7.767              7.291
 Vibration     1          0.601              1.959              3.749
 Vibration     2          0.661              1.768              1.755
 Vibration     3          0.784              1.424              0.887
 Vibration     4          0.928              1.091              0.500

 Optimization completed.
    -- Stationary point found.
 Normal termination of Gaussian 16 at Thu Jun 16 08:14:19 2022.
