 Gaussian 16, Revision B.01,
 Gaussian 16:  ES64L-G16RevB.01 20-Dec-2017

 --------------------
 # b3lyp/gen opt freq
 --------------------

 ------------------------------------
 1,1,2-trichloroethane, B3LYP/pcseg-2
 ------------------------------------
 Symbolic Z-matrix:
 Charge =  0 Multiplicity = 1

 SCF Done:  E(RB3LYP) =  -1458.76022811     A.U. after   13 cycles
 SCF Done:  E(RB3LYP) =  -1458.76024047     A.U. after    8 cycles
 Optimization completed.
    -- Stationary point found.
 Normal termination of Gaussian 16 at Thu Jun 16 18:40:49 2022.

 ------------------------------------------------------------------
 #N Geom=AllCheck Guess=TCheck SCRF=Check GenChk RB3LYP/ChkBas Freq
 ------------------------------------------------------------------

 Structure from the checkpoint file:  "/wrk/irikura/Gau-1598.chk"
 ------------------------------------
 1,1,2-trichloroethane, B3LYP/pcseg-2
 ------------------------------------
 Charge =  0 Multiplicity = 1

                         Standard orientation:
 ---------------------------------------------------------------------
 Center     Atomic      Atomic             Coordinates (Angstroms)
 Number     Number       Type             X           Y           Z
 ---------------------------------------------------------------------
      1          6           0        0.668004   -0.826732    0.403470
      2          6           0       -0.409913   -0.078172   -0.356090
      3         17           0        2.312326   -0.300407   -0.094299
      4          1           0        0.571183   -0.663718    1.472096
      5          1           0        0.592570   -1.886664    0.180840
      6         17           0       -1.987339   -0.875525   -0.015816
      7         17           0       -0.469250    1.652897    0.080145
      8          1           0       -0.259823   -0.128597   -1.427731
 ---------------------------------------------------------------------

 SCF Done:  E(RB3LYP) =  -1458.76024047     A.U. after    1 cycles

 The electronic state is 1-A.
 Alpha  occ. eigenvalues -- -101.53197-101.52767-101.52090 -10.31807 -10.26459
 Alpha  occ. eigenvalues --   -9.47717  -9.47298  -9.46602  -7.23898  -7.23488
 Alpha  occ. eigenvalues --   -7.22984  -7.22968  -7.22782  -7.22559  -7.22542
 Alpha  occ. eigenvalues --   -7.21879  -7.21850  -0.93171  -0.86801  -0.83914
 Alpha  occ. eigenvalues --   -0.73614  -0.63658  -0.52250  -0.48935  -0.48026
 Alpha  occ. eigenvalues --   -0.43907  -0.42162  -0.34948  -0.34004  -0.33320
 Alpha  occ. eigenvalues --   -0.32248  -0.31999  -0.31572
 Alpha virt. eigenvalues --   -0.02883  -0.01439   0.00921   0.03430   0.04170
 Alpha virt. eigenvalues --    0.06222   0.08808   0.14318   0.14821   0.18882
 Alpha virt. eigenvalues --    0.19499   0.22417   0.24075   0.25741   0.26418

 Mulliken charges:
               1
     1  C   -0.017895
     2  C    0.066418
     3  Cl  -0.134111
     4  H    0.088222
     5  H    0.086587
     6  Cl  -0.110879
     7  Cl  -0.093767
     8  H    0.115425
 Sum of Mulliken charges =   0.00000

 Dipole moment (field-independent basis, Debye):
    X=             -0.0626    Y=             -1.2957    Z=             -0.1053  Tot=              1.3015
 Quadrupole moment (field-independent basis, Debye-Ang):
   XX=            -55.8801   YY=            -50.4387   ZZ=            -48.8733
   XY=             -0.1606   XZ=              0.4616   YZ=             -0.3877

  Exact polarizability:  73.422   6.091  61.089  -2.062  -0.120  43.981
 Approx polarizability: 104.157  13.554  93.035  -5.867   0.641  68.615

                      1                      2                      3
                      A                      A                      A
 Frequencies --    104.2704               179.1475               251.2071
 Red. masses --      5.3988                 6.4398                16.7078
 Frc consts  --      0.0346                 0.1218                 0.6212
 IR Inten    --      3.3865                 3.8340                 1.1078

                      4                      5                      6
                      A                      A                      A
 Frequencies --    326.9041               385.0164               657.7506
 Red. masses --     16.0317                 3.3838                 4.5309
 Frc consts  --      1.0094                 0.2955                 1.1549
 IR Inten    --      1.2916                 7.2354                41.6491

                      7                      8                      9
                      A                      A                      A
 Frequencies --    711.2151               764.2191               937.9015
 Red. masses --      9.5384                 5.5037                 1.6387
 Frc consts  --      2.8427                 1.8938                 0.8493
 IR Inten    --    133.2537                13.5462                25.1603

                     10                     11                     12
                      A                      A                      A
 Frequencies --   1054.0955              1178.0478              1228.0300
 Red. masses --      3.7824                 1.1080                 1.0748
 Frc consts  --      2.4761                 0.9059                 0.9550
 IR Inten    --      3.5539                 3.6386                22.2435

                     13                     14                     15
                      A                      A                      A
 Frequencies --   1290.0601              1336.0400              1472.0609
 Red. masses --      1.1649                 1.2249                 1.0891
 Frc consts  --      1.1423                 1.2882                 1.3905
 IR Inten    --     19.7352                 6.2799                 6.1079

                     16                     17                     18
                      A                      A                      A
 Frequencies --   3099.9034              3146.3176              3166.9286
 Red. masses --      1.0565                 1.0911                 1.1078
 Frc consts  --      5.9815                 6.3637                 6.5464
 IR Inten    --      5.0861                 1.1271                 0.2348

 - Thermochemistry -
 -------------------
 Temperature   298.150 Kelvin.  Pressure   1.00000 Atm.
 Atom     1 has atomic number  6 and mass  12.00000

 Molecular mass:   131.93003 amu.
 Principal axes and moments of inertia in atomic units:
                           1         2         3
     Eigenvalues --   521.432591246.975421709.34265
           X            0.99995  -0.00848   0.00465
           Y            0.00852   0.99991  -0.01011
           Z           -0.00456   0.01015   0.99994
 This molecule is an asymmetric top.
 Rotational symmetry number  1.
 Warning -- assumption of classical behavior for rotation
           may cause significant error
 Rotational temperatures (Kelvin)      0.16611     0.06946     0.05067
 Rotational constants (GHZ):           3.46112     1.44729     1.05581
 Zero-point vibrational energy     127337.2 (Joules/Mol)
                                   30.43432 (Kcal/Mol)
 Warning -- explicit consideration of   5 degrees of freedom as
           vibrations may cause significant error
 Vibrational temperatures:    150.02   257.75   361.43   470.34   553.95
          (Kelvin)            946.36  1023.28  1099.54  1349.43  1516.61
                             1694.95  1766.86  1856.11  1922.26  2117.97
                             4460.07  4526.85  4556.50

 Zero-point correction=                           0.048500 (Hartree/Particle)
 Thermal correction to Energy=                    0.054315
 Thermal correction to Enthalpy=                  0.055259
 Thermal correction to Gibbs Free Energy=         0.017247
 Sum of electronic and zero-point Energies=          -1458.711740
 Sum of electronic and thermal Energies=             -1458.705925
 Sum of electronic and thermal Enthalpies=           -1458.704981
 Sum of electronic and thermal Free Energies=        -1458.742994

                     E (Thermal)             CV                S
                      KCal/Mol        Cal/Mol-Kelvin    Cal/Mol-Kelvin
 Total                   34.083             18.638             80.004
 Electronic               0.000              0.000              0.000
 Translational            0.889              2.981             40.544
 Rotational               0.889              2.981             28.499
 Vibrational             32.306             12.676             10.961
 Vibration     1          0.605              1.946              3.373
 Vibration     2          0.629              1.868              2.337
 Vibration     3          0.663              1.761              1.722
 Vibration     4          0.711              1.622              1.275
 Vibration     5          0.754              1.502              1.019

 Optimization completed.
    -- Stationary point found.
 Normal termination of Gaussian 16 at Thu Jun 16 18:42:14 2022.
