 Gaussian 16, Revision B.01,

 ---------------------------------------
 # b3lyp/gen opt freq CPHF(Grid=OneStep)
 ---------------------------------------

 --------------------------------------
 3-methylenecyclopropene, B3LYP/pcseg-2
 --------------------------------------
 Symbolic Z-matrix:
 Charge =  0 Multiplicity = 1

 SCF Done:  E(RB3LYP) =  -154.766610584     A.U. after   12 cycles
 Optimization completed.
    -- Stationary point found.
 Normal termination of Gaussian 16 at Wed Sep 27 17:23:45 2023.

 ------------------------------------------------------------------
 #N Geom=AllCheck Guess=TCheck SCRF=Check GenChk RB3LYP/ChkBas Freq
 ------------------------------------------------------------------

 Structure from the checkpoint file:  "ch2cc2h2.chk"
 --------------------------------------
 3-methylenecyclopropene, B3LYP/pcseg-2
 --------------------------------------
 Charge =  0 Multiplicity = 1

 SCF Done:  E(RB3LYP) =  -154.766610584     A.U. after    1 cycles

  Exact polarizability:  28.034   0.000  42.200   0.000  -0.000  65.889
 Approx polarizability:  39.753   0.000  66.969   0.000   0.000  95.358

                      1                      2                      3
                     B2                     B1                     B1
 Frequencies --    361.4870               431.3628               690.7686
 Red. masses --      2.2589                 2.5971                 1.5099
 Frc consts  --      0.1739                 0.2847                 0.4245
 IR Inten    --      3.8410                29.5618                30.7496

                      4                      5                      6
                     A2                     B1                     A1
 Frequencies --    713.1448               781.8551               842.6211
 Red. masses --      1.0920                 1.3096                 1.8276
 Frc consts  --      0.3272                 0.4717                 0.7645
 IR Inten    --      0.0000                84.4660                 0.4149

                      7                      8                      9
                     B2                     A2                     A1
 Frequencies --    852.4028               918.2901              1023.5478
 Red. masses --      1.9967                 1.4043                 1.6275
 Frc consts  --      0.8548                 0.6977                 1.0046
 IR Inten    --      6.0687                 0.0000                 7.7067

                     10                     11                     12
                     B2                     B2                     A1
 Frequencies --   1070.5196              1125.3849              1461.3457
 Red. masses --      1.5694                 2.2293                 1.1547
 Frc consts  --      1.0597                 1.6635                 1.4529
 IR Inten    --      7.9073                10.3178                 1.7384

                     13                     14                     15
                     A1                     A1                     A1
 Frequencies --   1602.6229              1818.5974              3150.0321
 Red. masses --      6.0871                 7.6274                 1.0554
 Frc consts  --      9.2114                14.8628                 6.1703
 IR Inten    --     27.7677               222.7607                 3.0214

                     16                     17                     18
                     B2                     B2                     A1
 Frequencies --   3231.9921              3241.5768              3280.6683
 Red. masses --      1.1160                 1.0868                 1.1389
 Frc consts  --      6.8686                 6.7282                 7.2219
 IR Inten    --     10.5476                 1.0360                 2.2849

 - Thermochemistry -
 -------------------
 Temperature   298.150 Kelvin.  Pressure   1.00000 Atm.
 Atom     1 has atomic number  6 and mass  12.00000

 Molecular mass:    52.03130 amu.
 Principal axes and moments of inertia in atomic units:
                           1         2         3
     Eigenvalues --    60.80174 250.47639 311.27813
           X            0.00000  -0.00000   1.00000
           Y            0.00000   1.00000   0.00000
           Z            1.00000  -0.00000   0.00000
 This molecule is an asymmetric top.
 Rotational symmetry number  2.
 Rotational temperatures (Kelvin)      1.42453     0.34580     0.27825
 Rotational constants (GHZ):          29.68239     7.20523     5.79784
 Zero-point vibrational energy     159092.7 (Joules/Mol)
                                   38.02406 (Kcal/Mol)
 Warning -- explicit consideration of   2 degrees of freedom as
           vibrations may cause significant error
 Vibrational temperatures:    520.10   620.63   993.86  1026.06  1124.92
          (Kelvin)           1212.34  1226.42  1321.21  1472.66  1540.24
                             1619.18  2102.55  2305.82  2616.56  4532.19
                             4650.12  4663.91  4720.15

 Zero-point correction=                           0.060595 (Hartree/Particle)
 Thermal correction to Energy=                    0.064641
 Thermal correction to Enthalpy=                  0.065585
 Thermal correction to Gibbs Free Energy=         0.035661
 Sum of electronic and zero-point Energies=           -154.706015
 Sum of electronic and thermal Energies=              -154.701970
 Sum of electronic and thermal Enthalpies=            -154.701026
 Sum of electronic and thermal Free Energies=         -154.730949

                     E (Thermal)             CV                S
                      KCal/Mol        Cal/Mol-Kelvin    Cal/Mol-Kelvin
 Total                   40.563             13.953             62.980
 Electronic               0.000              0.000              0.000
 Translational            0.889              2.981             37.771
 Rotational               0.889              2.981             21.699
 Vibrational             38.785              7.992              3.510
 Vibration     1          0.736              1.552              1.116
 Vibration     2          0.792              1.402              0.854

 Optimization completed.
    -- Stationary point found.
 Normal termination of Gaussian 16 at Wed Sep 27 17:25:34 2023.
 Gaussian 16:  ES64L-G16RevB.01 20-Dec-2017

 ---------------------------------
 # rohf/gen geom=check guess=check
 ---------------------------------

 -----------------------------------------
 3-methylenecyclopropene, ROHF/cc-pVTZ-F12
 -----------------------------------------
 Structure from the checkpoint file:  "ch2cc2h2.chk"
 Charge =  0 Multiplicity = 1

                         Standard orientation:
 ---------------------------------------------------------------------
 Center     Atomic      Atomic             Coordinates (Angstroms)
 Number     Number       Type             X           Y           Z
 ---------------------------------------------------------------------
      1          6           0        0.000000    0.000000    1.586774
      2          6           0        0.000000    0.000000    0.260951
      3          6           0       -0.000000    0.656550   -1.016316
      4          6           0       -0.000000   -0.656550   -1.016316
      5          1           0       -0.000000    0.925867    2.143093
      6          1           0       -0.000000   -0.925867    2.143093
      7          1           0       -0.000000    1.567562   -1.588370
      8          1           0       -0.000000   -1.567562   -1.588370
 ---------------------------------------------------------------------

 SCF Done:  E(ROHF) =  -153.735843459     A.U. after   11 cycles

 The electronic state is 1-A1.
 Alpha  occ. eigenvalues --  -11.27567 -11.27366 -11.26913 -11.18527  -1.20872
 Alpha  occ. eigenvalues --   -0.96932  -0.79980  -0.76103  -0.65670  -0.58158
 Alpha  occ. eigenvalues --   -0.52973  -0.51286  -0.44061  -0.29787
 Alpha virt. eigenvalues --    0.04370   0.04817   0.06048   0.07215   0.08082
 Alpha virt. eigenvalues --    0.08088   0.08172   0.10921   0.11264   0.11849
 Alpha virt. eigenvalues --    0.13298   0.14460   0.15855   0.16661   0.18319

 Mulliken charges and spin densities:
               1          2
     1  C   -0.411085   0.000000
     2  C   -0.000428   0.000000
     3  C   -0.128936   0.000000
     4  C   -0.128936   0.000000
     5  H    0.134469   0.000000
     6  H    0.134469   0.000000
     7  H    0.200224   0.000000
     8  H    0.200224   0.000000
 Sum of Mulliken charges =  -0.00000   0.00000

 Dipole moment (field-independent basis, Debye):
    X=             -0.0000    Y=              0.0000    Z=             -2.4521  Tot=              2.4521
 Quadrupole moment (field-independent basis, Debye-Ang):
   XX=            -27.3353   YY=            -20.3544   ZZ=            -23.2834
   XY=              0.0000   XZ=              0.0000   YZ=             -0.0000

 Normal termination of Gaussian 16 at Wed Sep 27 17:26:18 2023.
