 Gaussian 16, Revision B.01,

 ---------------------------------------
 # b3lyp/gen opt freq CPHF(Grid=OneStep)
 ---------------------------------------

 ---------------------------------
 1,2-dichloroethane, B3LYP/pcseg-2
 ---------------------------------
 Symbolic Z-matrix:
 Charge =  0 Multiplicity = 1

 SCF Done:  E(RB3LYP) =  -999.134279848     A.U. after   11 cycles
 Optimization completed.
    -- Stationary point found.
 Normal termination of Gaussian 16 at Fri Sep 29 18:32:06 2023.

 ------------------------------------------------------------------
 #N Geom=AllCheck Guess=TCheck SCRF=Check GenChk RB3LYP/ChkBas Freq
 ------------------------------------------------------------------

 Structure from the checkpoint file:  "ch2clch2cl.chk"
 ---------------------------------
 1,2-dichloroethane, B3LYP/pcseg-2
 ---------------------------------
 Charge =  0 Multiplicity = 1

 SCF Done:  E(RB3LYP) =  -999.134279848     A.U. after    1 cycles

  Exact polarizability:  42.900  -9.383  66.976   0.000   0.000  36.278
 Approx polarizability:  64.292 -16.536  90.628  -0.000  -0.000  54.161

                      1                      2                      3
                     AU                     BU                     AG
 Frequencies --    114.4447               214.0832               296.3920
 Red. masses --      4.0527                 5.2763                16.9349
 Frc consts  --      0.0313                 0.1425                 0.8765
 IR Inten    --      6.9692                 9.6119                 0.0000

                      4                      5                      6
                     BU                     AG                     AU
 Frequencies --    702.5293               747.6690               779.4204
 Red. masses --      8.8476                 5.2959                 1.1082
 Frc consts  --      2.5728                 1.7443                 0.3967
 IR Inten    --    102.9209                 0.0000                 2.3919

                      7                      8                      9
                     BG                     AG                     AU
 Frequencies --   1005.3010              1058.7193              1138.5868
 Red. masses --      1.3580                 4.2511                 1.0425
 Frc consts  --      0.8086                 2.8075                 0.7962
 IR Inten    --      0.0000                 0.0000                 1.2460

                     10                     11                     12
                     BU                     BG                     AG
 Frequencies --   1258.4437              1296.8808              1332.3653
 Red. masses --      1.1444                 1.1649                 1.2325
 Frc consts  --      1.0679                 1.1543                 1.2891
 IR Inten    --     38.2438                 0.0000                 0.0000

                     13                     14                     15
                     AG                     BU                     AG
 Frequencies --   1491.8391              1496.1054              3097.1892
 Red. masses --      1.0967                 1.0943                 1.0568
 Frc consts  --      1.4380                 1.4432                 5.9728
 IR Inten    --      0.0000                 5.8993                 0.0000

                     16                     17                     18
                     BU                     BG                     AU
 Frequencies --   3105.5761              3150.2980              3173.9002
 Red. masses --      1.0558                 1.1113                 1.1128
 Frc consts  --      5.9998                 6.4980                 6.6048
 IR Inten    --     14.2998                 0.0000                 2.5872

 - Thermochemistry -
 -------------------
 Temperature   298.150 Kelvin.  Pressure   1.00000 Atm.
 Atom     1 has atomic number  6 and mass  12.00000

 Molecular mass:    97.96901 amu.
 Principal axes and moments of inertia in atomic units:
                           1         2         3
     Eigenvalues --    61.476051217.317121256.11180
           X           -0.19303   0.98119   0.00000
           Y            0.98119   0.19303   0.00000
           Z           -0.00000   0.00000   1.00000
 This molecule is an asymmetric top.
 Rotational symmetry number  2.
 Rotational temperatures (Kelvin)      1.40891     0.07115     0.06895
 Rotational constants (GHZ):          29.35682     1.48256     1.43677
 Zero-point vibrational energy     152283.1 (Joules/Mol)
                                   36.39653 (Kcal/Mol)
 Warning -- explicit consideration of   3 degrees of freedom as
           vibrations may cause significant error
 Vibrational temperatures:    164.66   308.02   426.44  1010.78  1075.73
          (Kelvin)           1121.41  1446.40  1523.26  1638.17  1810.62
                             1865.92  1916.98  2146.42  2152.56  4456.16
                             4468.23  4532.58  4566.53

 Zero-point correction=                           0.058002 (Hartree/Particle)
 Thermal correction to Energy=                    0.062928
 Thermal correction to Enthalpy=                  0.063872
 Thermal correction to Gibbs Free Energy=         0.029629
 Sum of electronic and zero-point Energies=           -999.076278
 Sum of electronic and thermal Energies=              -999.071352
 Sum of electronic and thermal Enthalpies=            -999.070408
 Sum of electronic and thermal Free Energies=         -999.104651

                     E (Thermal)             CV                S
                      KCal/Mol        Cal/Mol-Kelvin    Cal/Mol-Kelvin
 Total                   39.488             15.192             72.070
 Electronic               0.000              0.000              0.000
 Translational            0.889              2.981             39.657
 Rotational               0.889              2.981             24.667
 Vibrational             37.710              9.231              7.747
 Vibration     1          0.607              1.937              3.192
 Vibration     2          0.644              1.820              2.009
 Vibration     3          0.690              1.680              1.437

 Optimization completed.
    -- Stationary point found.
 Normal termination of Gaussian 16 at Fri Sep 29 18:33:48 2023.
 Gaussian 16:  ES64L-G16RevB.01 20-Dec-2017

 ---------------------------------
 # rohf/gen geom=check guess=check
 ---------------------------------

 ------------------------------------
 1,2-dichloroethane, ROHF/cc-pVTZ-F12
 ------------------------------------
 Structure from the checkpoint file:  "ch2clch2cl.chk"
 Charge =  0 Multiplicity = 1

                         Standard orientation:
 ---------------------------------------------------------------------
 Center     Atomic      Atomic             Coordinates (Angstroms)
 Number     Number       Type             X           Y           Z
 ---------------------------------------------------------------------
      1          6           0        0.475325    0.587726    0.000000
      2          6           0       -0.475325   -0.587726    0.000000
      3         17           0       -0.475325    2.125363    0.000000
      4         17           0        0.475325   -2.125363    0.000000
      5          1           0        1.099705    0.597185    0.887561
      6          1           0        1.099705    0.597185   -0.887561
      7          1           0       -1.099705   -0.597185    0.887561
      8          1           0       -1.099705   -0.597185   -0.887561
 ---------------------------------------------------------------------

 SCF Done:  E(ROHF) =  -997.148894152     A.U. after   11 cycles

 The electronic state is 1-AG.
 Alpha  occ. eigenvalues -- -104.83742-104.83742 -11.31385 -11.31319 -10.56253
 Alpha  occ. eigenvalues --  -10.56253  -8.02946  -8.02945  -8.02798  -8.02798
 Alpha  occ. eigenvalues --   -8.02794  -8.02794  -1.17239  -1.11804  -0.97824
 Alpha  occ. eigenvalues --   -0.85691  -0.68928  -0.61066  -0.60215  -0.57899
 Alpha  occ. eigenvalues --   -0.52179  -0.46190  -0.45122  -0.44783  -0.44254
 Alpha virt. eigenvalues --    0.05056   0.05197   0.05992   0.06953   0.08388
 Alpha virt. eigenvalues --    0.09077   0.10138   0.11192   0.11498   0.12746
 Alpha virt. eigenvalues --    0.13854   0.14098   0.16636   0.17039   0.18213

 Mulliken charges and spin densities:
               1          2
     1  C   -0.175465   0.000000
     2  C   -0.175465   0.000000
     3  Cl  -0.105110   0.000000
     4  Cl  -0.105110   0.000000
     5  H    0.140288   0.000000
     6  H    0.140288   0.000000
     7  H    0.140288   0.000000
     8  H    0.140288   0.000000
 Sum of Mulliken charges =  -0.00000   0.00000

 Dipole moment (field-independent basis, Debye):
    X=             -0.0000    Y=              0.0000    Z=              0.0000  Tot=              0.0000
 Quadrupole moment (field-independent basis, Debye-Ang):
   XX=            -37.6253   YY=            -46.3925   ZZ=            -37.8574
   XY=              2.3791   XZ=              0.0000   YZ=              0.0000

 Normal termination of Gaussian 16 at Fri Sep 29 18:34:28 2023.
