 Gaussian 16, Revision B.01,
 Gaussian 16:  ES64L-G16RevB.01 20-Dec-2017

 --------------------
 # b3lyp/gen opt freq
 --------------------

 ----------------------------
 carboxymethyl, B3LYP/pcseg-2
 ----------------------------
 Symbolic Z-matrix:
 Charge =  0 Multiplicity = 2

 SCF Done:  E(UB3LYP) =  -228.524568425     A.U. after   16 cycles
 SCF Done:  E(UB3LYP) =  -228.524630780     A.U. after   10 cycles
 SCF Done:  E(UB3LYP) =  -228.524634534     A.U. after    9 cycles
 Optimization completed.
    -- Stationary point found.
 Normal termination of Gaussian 16 at Sat Jun 18 12:29:46 2022.

 ------------------------------------------------------------------
 #N Geom=AllCheck Guess=TCheck SCRF=Check GenChk UB3LYP/ChkBas Freq
 ------------------------------------------------------------------

 Structure from the checkpoint file:  "/wrk/irikura/Gau-7021.chk"
 ----------------------------
 carboxymethyl, B3LYP/pcseg-2
 ----------------------------
 Charge =  0 Multiplicity = 2

                         Standard orientation:
 ---------------------------------------------------------------------
 Center     Atomic      Atomic             Coordinates (Angstroms)
 Number     Number       Type             X           Y           Z
 ---------------------------------------------------------------------
      1          6           0        1.331853   -0.438529    0.000000
      2          6           0       -0.000000    0.110986   -0.000000
      3          8           0       -0.261160    1.297891   -0.000000
      4          8           0       -0.967855   -0.846524   -0.000000
      5          1           0       -1.818218   -0.386910   -0.000000
      6          1           0        2.164095    0.245676    0.000000
      7          1           0        1.495127   -1.504444    0.000000
 ---------------------------------------------------------------------

 SCF Done:  E(UB3LYP) =  -228.524634534     A.U. after    1 cycles

 The electronic state is 2-A".
 Alpha  occ. eigenvalues --  -19.17792 -19.12686 -10.31553 -10.22747  -1.11723
 Alpha  occ. eigenvalues --   -1.03047  -0.77836  -0.62188  -0.51989  -0.49536
 Alpha  occ. eigenvalues --   -0.46902  -0.45085  -0.41734  -0.34715  -0.30056
 Alpha  occ. eigenvalues --   -0.27702
 Alpha virt. eigenvalues --    0.00879   0.02200   0.03683   0.06427   0.11473
 Alpha virt. eigenvalues --    0.14369   0.15701   0.15741   0.20765   0.22203
 Alpha virt. eigenvalues --    0.23670   0.28652   0.29480   0.32563   0.33378

  Beta  occ. eigenvalues --  -19.17741 -19.12157 -10.31695 -10.21442  -1.11410
  Beta  occ. eigenvalues --   -1.02343  -0.75125  -0.61386  -0.51242  -0.49152
  Beta  occ. eigenvalues --   -0.45519  -0.44360  -0.41345  -0.32944  -0.29484
  Beta virt. eigenvalues --   -0.14128   0.01030   0.03897   0.04307   0.06519
  Beta virt. eigenvalues --    0.11574   0.14501   0.16005   0.17298   0.22415
  Beta virt. eigenvalues --    0.22618   0.24939   0.28873   0.30169   0.32980

 Mulliken charges and spin densities:
               1          2
     1  C   -0.092757   0.934073
     2  C    0.489053  -0.067276
     3  O   -0.430095   0.185871
     4  O   -0.357351   0.016194
     5  H    0.216076  -0.001706
     6  H    0.090546  -0.033292
     7  H    0.084527  -0.033865
 Sum of Mulliken charges =  -0.00000   1.00000

 Dipole moment (field-independent basis, Debye):
    X=              0.5511    Y=             -1.7134    Z=              0.0000  Tot=              1.7999
 Quadrupole moment (field-independent basis, Debye-Ang):
   XX=            -17.2518   YY=            -28.1006   ZZ=            -23.7886
   XY=             -0.4405   XZ=             -0.0000   YZ=              0.0000

  Exact polarizability:  37.379  -2.524  35.917  -0.000   0.000  20.675
 Approx polarizability:  46.429  -3.912  55.529   0.000  -0.000  28.068

                      1                      2                      3
                     A"                     A'                     A"
 Frequencies --    307.6486               425.4898               544.2713
 Red. masses --      1.0550                 2.6666                 1.2092
 Frc consts  --      0.0588                 0.2844                 0.2110
 IR Inten    --      0.3259                 5.0811                90.8497

                      4                      5                      6
                     A'                     A"                     A"
 Frequencies --    581.2381               644.4909               781.2572
 Red. masses --      4.3727                 1.6010                 2.8127
 Frc consts  --      0.8704                 0.3918                 1.0115
 IR Inten    --     36.9140                 9.6520                68.3033

                      7                      8                      9
                     A'                     A'                     A'
 Frequencies --    911.6596               992.4079              1191.4167
 Red. masses --      4.3098                 1.6325                 1.8762
 Frc consts  --      2.1104                 0.9473                 1.5691
 IR Inten    --     26.0314                48.6625               217.3045

                     10                     11                     12
                     A'                     A'                     A'
 Frequencies --   1356.0198              1465.1127              1688.6853
 Red. masses --      2.0092                 1.3836                 8.7747
 Frc consts  --      2.1768                 1.7499                14.7428
 IR Inten    --     45.6432                43.7158               230.7663

                     13                     14                     15
                     A'                     A'                     A'
 Frequencies --   3176.5122              3296.8002              3764.3734
 Red. masses --      1.0507                 1.1219                 1.0644
 Frc consts  --      6.2464                 7.1842                 8.8864
 IR Inten    --      0.3008                 0.2957                76.9567

 - Thermochemistry -
 -------------------
 Temperature   298.150 Kelvin.  Pressure   1.00000 Atm.
 Atom     1 has atomic number  6 and mass  12.00000

 Molecular mass:    59.01330 amu.
 Principal axes and moments of inertia in atomic units:
                           1         2         3
     Eigenvalues --   154.58620 170.08622 324.67242
           X            0.99764   0.06865   0.00000
           Y           -0.06865   0.99764   0.00000
           Z            0.00000  -0.00000   1.00000
 This molecule is an asymmetric top.
 Rotational symmetry number  1.
 Rotational temperatures (Kelvin)      0.56030     0.50924     0.26677
 Rotational constants (GHZ):          11.67466    10.61074     5.55865
 Zero-point vibrational energy     126369.8 (Joules/Mol)
                                   30.20311 (Kcal/Mol)
 Warning -- explicit consideration of   4 degrees of freedom as
           vibrations may cause significant error
 Vibrational temperatures:    442.64   612.18   783.09   836.27   927.28
          (Kelvin)           1124.05  1311.67  1427.85  1714.18  1951.01
                             2107.97  2429.64  4570.29  4743.36  5416.09

 Zero-point correction=                           0.048132 (Hartree/Particle)
 Thermal correction to Energy=                    0.052369
 Thermal correction to Enthalpy=                  0.053313
 Thermal correction to Gibbs Free Energy=         0.021296
 Sum of electronic and zero-point Energies=           -228.476503
 Sum of electronic and thermal Energies=              -228.472265
 Sum of electronic and thermal Enthalpies=            -228.471321
 Sum of electronic and thermal Free Energies=         -228.503339

                     E (Thermal)             CV                S
                      KCal/Mol        Cal/Mol-Kelvin    Cal/Mol-Kelvin
 Total                   32.862             14.207             67.387
 Electronic               0.000              0.000              1.377
 Translational            0.889              2.981             38.146
 Rotational               0.889              2.981             23.661
 Vibrational             31.085              8.246              4.203
 Vibration     1          0.698              1.659              1.375
 Vibration     2          0.787              1.415              0.874
 Vibration     3          0.899              1.152              0.556
 Vibration     4          0.938              1.072              0.483

 Optimization completed.
    -- Stationary point found.
 Normal termination of Gaussian 16 at Sat Jun 18 12:30:39 2022.
