 Gaussian 16, Revision B.01,
 Gaussian 16:  ES64L-G16RevB.01 20-Dec-2017

 ---------------------------------
 # b3lyp/gen opt(cart,calcfc) freq
 ---------------------------------

 -----------------------------------
 cis-divinylacetylene, B3LYP/pcseg-2
 -----------------------------------
 Symbolic Z-matrix:
 Charge =  0 Multiplicity = 1

 SCF Done:  E(RB3LYP) =  -232.240244272     A.U. after   12 cycles
 SCF Done:  E(RB3LYP) =  -232.240316699     A.U. after    8 cycles
 SCF Done:  E(RB3LYP) =  -232.240316777     A.U. after    6 cycles
 Optimization completed.
    -- Stationary point found.
 Normal termination of Gaussian 16 at Mon Jun 20 11:49:35 2022.

 ------------------------------------------------------------------
 #N Geom=AllCheck Guess=TCheck SCRF=Check GenChk RB3LYP/ChkBas Freq
 ------------------------------------------------------------------

 Structure from the checkpoint file:  "/wrk/irikura/Gau-20326.chk"
 -----------------------------------
 cis-divinylacetylene, B3LYP/pcseg-2
 -----------------------------------
 Charge =  0 Multiplicity = 1

                         Standard orientation:
 ---------------------------------------------------------------------
 Center     Atomic      Atomic             Coordinates (Angstroms)
 Number     Number       Type             X           Y           Z
 ---------------------------------------------------------------------
      1          6           0       -0.000000    0.604528   -0.384314
      2          6           0       -0.000000   -0.604528   -0.384314
      3          6           0       -0.000000    2.019103   -0.416413
      4          6           0       -0.000000   -2.019103   -0.416413
      5          6           0       -0.000000    2.807415    0.663378
      6          6           0       -0.000000   -2.807415    0.663378
      7          1           0       -0.000000    3.883287    0.562885
      8          1           0       -0.000000   -3.883287    0.562885
      9          1           0       -0.000000    2.398443    1.664035
     10          1           0       -0.000000   -2.398443    1.664035
     11          1           0       -0.000000    2.471905   -1.402827
     12          1           0       -0.000000   -2.471905   -1.402827
 ---------------------------------------------------------------------

 SCF Done:  E(RB3LYP) =  -232.240316777     A.U. after    1 cycles

 The electronic state is 1-A1.
 Alpha  occ. eigenvalues --  -10.20203 -10.20202 -10.18385 -10.18385 -10.17870
 Alpha  occ. eigenvalues --  -10.17629  -0.81936  -0.79810  -0.73092  -0.63835
 Alpha  occ. eigenvalues --   -0.60163  -0.51572  -0.50125  -0.45595  -0.45566
 Alpha  occ. eigenvalues --   -0.39049  -0.38591  -0.36166  -0.31072  -0.27808
 Alpha  occ. eigenvalues --   -0.23404
 Alpha virt. eigenvalues --   -0.06408   0.00616   0.01215   0.02201   0.04264
 Alpha virt. eigenvalues --    0.05972   0.06301   0.06857   0.09177   0.13289
 Alpha virt. eigenvalues --    0.13568   0.13964   0.15171   0.15608   0.16150

 Mulliken charges:
               1
     1  C    0.001910
     2  C    0.001910
     3  C   -0.075382
     4  C   -0.075382
     5  C   -0.083926
     6  C   -0.083926
     7  H    0.050193
     8  H    0.050193
     9  H    0.062285
    10  H    0.062285
    11  H    0.044921
    12  H    0.044921
 Sum of Mulliken charges =   0.00000

 Dipole moment (field-independent basis, Debye):
    X=             -0.0000    Y=              0.0000    Z=              0.0877  Tot=              0.0877
 Quadrupole moment (field-independent basis, Debye-Ang):
   XX=            -40.2287   YY=            -28.2863   ZZ=            -33.5452
   XY=              0.0000   XZ=              0.0000   YZ=             -0.0000

  Exact polarizability:  40.846  -0.000 146.372  -0.000   0.000  63.903
 Approx polarizability:  58.036  -0.000 232.834  -0.000   0.000  99.439

                      1                      2                      3
                     A2                     A1                     B1
 Frequencies --     67.7984               102.4264               172.4475
 Red. masses --      1.9428                 3.4035                 2.2293
 Frc consts  --      0.0053                 0.0210                 0.0391
 IR Inten    --      0.0000                 2.0200                 7.6471

                      4                      5                      6
                     B2                     A2                     A1
 Frequencies --    254.4012               381.8801               468.5787
 Red. masses --      3.5405                 2.6588                 3.9944
 Frc consts  --      0.1350                 0.2284                 0.5167
 IR Inten    --      1.5725                 0.0000                 4.6846

                      7                      8                      9
                     B2                     B1                     A2
 Frequencies --    597.0952               693.1756               707.9719
 Red. masses --      3.7939                 1.7349                 2.1051
 Frc consts  --      0.7969                 0.4912                 0.6217
 IR Inten    --      7.3487                13.0981                 0.0000

                     10                     11                     12
                     A1                     A2                     B1
 Frequencies --    722.0944               953.1616               954.6820
 Red. masses --      2.6317                 1.3431                 1.3285
 Frc consts  --      0.8085                 0.7190                 0.7134
 IR Inten    --      0.0416                 0.0000                97.2069

                     13                     14                     15
                     B1                     A2                     B2
 Frequencies --   1007.6201              1012.3931              1021.0872
 Red. masses --      1.1314                 1.1211                 1.6320
 Frc consts  --      0.6768                 0.6770                 1.0026
 IR Inten    --     26.8153                 0.0000                 0.5605

                     16                     17                     18
                     A1                     B2                     B2
 Frequencies --   1096.0986              1211.6772              1322.6764
 Red. masses --      1.4886                 2.6465                 1.3033
 Frc consts  --      1.0537                 2.2893                 1.3434
 IR Inten    --      0.0000                13.3481                 1.9237

                     19                     20                     21
                     A1                     A1                     B2
 Frequencies --   1325.8409              1444.0898              1462.5637
 Red. masses --      1.3002                 1.2267                 1.2906
 Frc consts  --      1.3467                 1.5072                 1.6266
 IR Inten    --      0.0594                 6.5241                 1.2823

                     22                     23                     24
                     A1                     B2                     A1
 Frequencies --   1647.0158              1671.0876              2290.2805
 Red. masses --      3.6211                 4.4771                11.9132
 Frc consts  --      5.7875                 7.3662                36.8175
 IR Inten    --      7.3976                33.7682                 0.0000

                     25                     26                     27
                     A1                     B2                     B2
 Frequencies --   3135.0401              3135.5255              3153.2086
 Red. masses --      1.0843                 1.0843                 1.0615
 Frc consts  --      6.2787                 6.2808                 6.2185
 IR Inten    --      6.5536                12.7597                 3.8412

                     28                     29                     30
                     A1                     B2                     A1
 Frequencies --   3153.2845              3242.1298              3242.2578
 Red. masses --      1.0614                 1.1174                 1.1174
 Frc consts  --      6.2184                 6.9204                 6.9209
 IR Inten    --      2.2080                 7.7965                 3.8084

 - Thermochemistry -
 -------------------
 Temperature   298.150 Kelvin.  Pressure   1.00000 Atm.
 Atom     1 has atomic number  6 and mass  12.00000

 Molecular mass:    78.04695 amu.
 Principal axes and moments of inertia in atomic units:
                           1         2         3
     Eigenvalues --   101.491031250.153571351.64460
           X            0.00000   0.00000   1.00000
           Y            1.00000   0.00000  -0.00000
           Z           -0.00000   1.00000  -0.00000
 This molecule is an asymmetric top.
 Rotational symmetry number  2.
 Rotational temperatures (Kelvin)      0.85341     0.06928     0.06408
 Rotational constants (GHZ):          17.78227     1.44362     1.33522
 Zero-point vibrational energy     249119.9 (Joules/Mol)
                                   59.54108 (Kcal/Mol)
 Warning -- explicit consideration of   7 degrees of freedom as
           vibrations may cause significant error
 Vibrational temperatures:     97.55   147.37   248.11   366.03   549.44
          (Kelvin)            674.18   859.09   997.33  1018.61  1038.93
                             1371.39  1373.57  1449.74  1456.61  1469.12
                             1577.04  1743.33  1903.04  1907.59  2077.72
                             2104.30  2369.69  2404.32  3295.20  4510.62
                             4511.32  4536.76  4536.87  4664.70  4664.89

 Zero-point correction=                           0.094885 (Hartree/Particle)
 Thermal correction to Energy=                    0.101669
 Thermal correction to Enthalpy=                  0.102613
 Thermal correction to Gibbs Free Energy=         0.064707
 Sum of electronic and zero-point Energies=           -232.145432
 Sum of electronic and thermal Energies=              -232.138648
 Sum of electronic and thermal Enthalpies=            -232.137704
 Sum of electronic and thermal Free Energies=         -232.175610

                     E (Thermal)             CV                S
                      KCal/Mol        Cal/Mol-Kelvin    Cal/Mol-Kelvin
 Total                   63.798             22.789             79.780
 Electronic               0.000              0.000              0.000
 Translational            0.889              2.981             38.979
 Rotational               0.889              2.981             25.264
 Vibrational             62.021             16.827             15.536
 Vibration     1          0.598              1.970              4.216
 Vibration     2          0.604              1.947              3.408
 Vibration     3          0.626              1.876              2.409
 Vibration     4          0.665              1.755              1.700
 Vibration     5          0.751              1.509              1.032
 Vibration     6          0.826              1.320              0.742
 Vibration     7          0.955              1.038              0.455

 Optimization completed.
    -- Stationary point found.
 Normal termination of Gaussian 16 at Mon Jun 20 11:50:57 2022.
