 Gaussian 16, Revision B.01,
 Gaussian 16:  ES64L-G16RevB.01 20-Dec-2017

 --------------------
 # b3lyp/gen opt freq
 --------------------

 ---------------------------
 chloroallene, B3LYP/pcseg-2
 ---------------------------
 Symbolic Z-matrix:
 Charge =  0 Multiplicity = 1

 SCF Done:  E(RB3LYP) =  -576.341072641     A.U. after   13 cycles
 SCF Done:  E(RB3LYP) =  -576.341102876     A.U. after    9 cycles
 SCF Done:  E(RB3LYP) =  -576.340359124     A.U. after   11 cycles
 SCF Done:  E(RB3LYP) =  -576.341111063     A.U. after    9 cycles
 SCF Done:  E(RB3LYP) =  -576.341113097     A.U. after    7 cycles
 Optimization completed.
    -- Stationary point found.
 Normal termination of Gaussian 16 at Fri Jun 17 17:46:38 2022.

 ------------------------------------------------------------------
 #N Geom=AllCheck Guess=TCheck SCRF=Check GenChk RB3LYP/ChkBas Freq
 ------------------------------------------------------------------

 Structure from the checkpoint file:  "/wrk/irikura/Gau-7960.chk"
 ---------------------------
 chloroallene, B3LYP/pcseg-2
 ---------------------------
 Charge =  0 Multiplicity = 1

                         Standard orientation:
 ---------------------------------------------------------------------
 Center     Atomic      Atomic             Coordinates (Angstroms)
 Number     Number       Type             X           Y           Z
 ---------------------------------------------------------------------
      1          6           0        1.142451    0.104794    0.000000
      2          6           0        2.293728   -0.497716    0.000000
      3          6           0        0.000000    0.717389    0.000000
      4          1           0        2.794229   -0.758771    0.925042
      5          1           0        2.794229   -0.758771   -0.925042
      6          1           0       -0.105266    1.791424    0.000000
      7         17           0       -1.535310   -0.130628    0.000000
 ---------------------------------------------------------------------

 SCF Done:  E(RB3LYP) =  -576.341113097     A.U. after    1 cycles

 The electronic state is 1-A'.
 Alpha  occ. eigenvalues -- -101.51755 -10.24131 -10.20656 -10.20178  -9.46233
 Alpha  occ. eigenvalues --   -7.22415  -7.21516  -7.21479  -0.87699  -0.79584
 Alpha  occ. eigenvalues --   -0.70767  -0.54693  -0.49186  -0.46757  -0.45656
 Alpha  occ. eigenvalues --   -0.36784  -0.31990  -0.29860  -0.26553
 Alpha virt. eigenvalues --   -0.04146  -0.01085   0.01395   0.03640   0.07349
 Alpha virt. eigenvalues --    0.08671   0.10893   0.12197   0.17767   0.18039
 Alpha virt. eigenvalues --    0.19286   0.24678   0.27213   0.27378   0.28633

 Mulliken charges:
               1
     1  C    0.025423
     2  C   -0.123048
     3  C   -0.051833
     4  H    0.075339
     5  H    0.075339
     6  H    0.107665
     7  Cl  -0.108885
 Sum of Mulliken charges =  -0.00000

 Dipole moment (field-independent basis, Debye):
    X=              1.7274    Y=              0.4114    Z=              0.0000  Tot=              1.7757
 Quadrupole moment (field-independent basis, Debye-Ang):
   XX=            -28.2881   YY=            -29.5223   ZZ=            -31.0287
   XY=             -1.8010   XZ=              0.0000   YZ=             -0.0000

  Exact polarizability:  80.010 -10.662  39.149   0.000  -0.000  29.984
 Approx polarizability: 121.977 -19.871  59.495   0.000  -0.000  42.395

                      1                      2                      3
                     A'                     A"                     A'
 Frequencies --    184.2164               317.5232               505.5993
 Red. masses --      5.0597                 2.1067                 8.7013
 Frc consts  --      0.1012                 0.1251                 1.3105
 IR Inten    --      1.0998                 9.6942                 6.9764

                      4                      5                      6
                     A"                     A'                     A"
 Frequencies --    571.2301               756.8717               854.1211
 Red. masses --      1.5236                 7.1275                 1.1300
 Frc consts  --      0.2929                 2.4056                 0.4857
 IR Inten    --      2.7604                74.0586                25.6250

                      7                      8                      9
                     A'                     A"                     A'
 Frequencies --    914.9969              1021.4986              1134.9432
 Red. masses --      1.3183                 1.4892                 1.8717
 Frc consts  --      0.6503                 0.9155                 1.4205
 IR Inten    --     48.2963                 0.3907                 4.7457

                     10                     11                     12
                     A'                     A'                     A'
 Frequencies --   1279.9474              1469.6713              2047.0145
 Red. masses --      1.4309                 1.3183                 9.8709
 Frc consts  --      1.3811                 1.6776                24.3696
 IR Inten    --     46.3545                13.0545                 5.3067

                     13                     14                     15
                     A'                     A"                     A'
 Frequencies --   3120.4229              3193.1496              3202.8835
 Red. masses --      1.0576                 1.1150                 1.0920
 Frc consts  --      6.0671                 6.6982                 6.6005
 IR Inten    --      2.5022                 0.4962                 5.5843

 - Thermochemistry -
 -------------------
 Temperature   298.150 Kelvin.  Pressure   1.00000 Atm.
 Atom     1 has atomic number  6 and mass  12.00000

 Molecular mass:    73.99233 amu.
 Principal axes and moments of inertia in atomic units:
                           1         2         3
     Eigenvalues --    55.02936 637.91305 680.62369
           X            0.99821   0.05984   0.00000
           Y           -0.05984   0.99821   0.00000
           Z            0.00000  -0.00000   1.00000
 This molecule is an asymmetric top.
 Rotational symmetry number  1.
 Rotational temperatures (Kelvin)      1.57396     0.13578     0.12726
 Rotational constants (GHZ):          32.79597     2.82913     2.65160
 Zero-point vibrational energy     123060.4 (Joules/Mol)
                                   29.41214 (Kcal/Mol)
 Warning -- explicit consideration of   4 degrees of freedom as
           vibrations may cause significant error
 Vibrational temperatures:    265.05   456.85   727.44   821.87  1088.97
          (Kelvin)           1228.89  1316.48  1469.71  1632.93  1841.56
                             2114.53  2945.20  4489.59  4594.23  4608.23

 Zero-point correction=                           0.046871 (Hartree/Particle)
 Thermal correction to Energy=                    0.051366
 Thermal correction to Enthalpy=                  0.052310
 Thermal correction to Gibbs Free Energy=         0.019532
 Sum of electronic and zero-point Energies=           -576.294242
 Sum of electronic and thermal Energies=              -576.289747
 Sum of electronic and thermal Enthalpies=            -576.288803
 Sum of electronic and thermal Free Energies=         -576.321581

                     E (Thermal)             CV                S
                      KCal/Mol        Cal/Mol-Kelvin    Cal/Mol-Kelvin
 Total                   32.232             14.421             68.986
 Electronic               0.000              0.000              0.000
 Translational            0.889              2.981             38.820
 Rotational               0.889              2.981             24.683
 Vibrational             30.455              8.460              5.483
 Vibration     1          0.631              1.861              2.285
 Vibration     2          0.704              1.640              1.323
 Vibration     3          0.861              1.238              0.644
 Vibration     4          0.927              1.093              0.502

 Optimization completed.
    -- Stationary point found.
 Normal termination of Gaussian 16 at Fri Jun 17 17:47:13 2022.
