 Gaussian 16, Revision B.01,
 Gaussian 16:  ES64L-G16RevB.01 20-Dec-2017

 --------------------
 # b3lyp/gen opt freq
 --------------------

 ---------------------
 CH2Cl2, B3LYP/pcseg-2
 ---------------------
 Symbolic Z-matrix:
 Charge =  0 Multiplicity = 1

 SCF Done:  E(RB3LYP) =  -959.797431489     A.U. after   11 cycles
 SCF Done:  E(RB3LYP) =  -959.797458740     A.U. after    7 cycles
 Optimization completed.
    -- Stationary point found.
 Normal termination of Gaussian 16 at Wed Jun 15 11:44:32 2022.

 ------------------------------------------------------------------
 #N Geom=AllCheck Guess=TCheck SCRF=Check GenChk RB3LYP/ChkBas Freq
 ------------------------------------------------------------------

 Structure from the checkpoint file:  "/wrk/irikura/Gau-16171.chk"
 ---------------------
 CH2Cl2, B3LYP/pcseg-2
 ---------------------
 Charge =  0 Multiplicity = 1

                         Standard orientation:
 ---------------------------------------------------------------------
 Center     Atomic      Atomic             Coordinates (Angstroms)
 Number     Number       Type             X           Y           Z
 ---------------------------------------------------------------------
      1          6           0        0.000000   -0.000000    0.767760
      2          1           0       -0.896665    0.000000    1.373349
      3          1           0        0.896665   -0.000000    1.373349
      4         17           0       -0.000000    1.487512   -0.216272
      5         17           0       -0.000000   -1.487512   -0.216272
 ---------------------------------------------------------------------

 SCF Done:  E(RB3LYP) =  -959.797458740     A.U. after    1 cycles

 The electronic state is 1-A1.
 Alpha  occ. eigenvalues -- -101.52342-101.52342 -10.30013  -9.46871  -9.46870
 Alpha  occ. eigenvalues --   -7.23055  -7.23055  -7.22149  -7.22149  -7.22104
 Alpha  occ. eigenvalues --   -7.22104  -0.90756  -0.83281  -0.67377  -0.50515
 Alpha  occ. eigenvalues --   -0.46750  -0.45177  -0.33749  -0.33469  -0.31820
 Alpha  occ. eigenvalues --   -0.31351
 Alpha virt. eigenvalues --   -0.02355   0.01976   0.02193   0.05039   0.13426
 Alpha virt. eigenvalues --    0.13732   0.19577   0.21862   0.27419   0.29763
 Alpha virt. eigenvalues --    0.30545   0.32737   0.33094   0.34193   0.35155

 Mulliken charges:
               1
     1  C    0.049652
     2  H    0.089895
     3  H    0.089895
     4  Cl  -0.114721
     5  Cl  -0.114721
 Sum of Mulliken charges =   0.00000

 Dipole moment (field-independent basis, Debye):
    X=             -0.0000    Y=             -0.0000    Z=              1.7529  Tot=              1.7529
 Quadrupole moment (field-independent basis, Debye-Ang):
   XX=            -31.4837   YY=            -34.2504   ZZ=            -29.9071
   XY=             -0.0000   XZ=             -0.0000   YZ=              0.0000

  Exact polarizability:  25.363   0.000  47.806  -0.000   0.000  30.830
 Approx polarizability:  36.907  -0.000  68.316   0.000   0.000  46.203

                      1                      2                      3
                     A1                     A1                     B2
 Frequencies --    278.8056               700.0422               719.8322
 Red. masses --     19.2610                 7.4834                 8.7576
 Frc consts  --      0.8821                 2.1607                 2.6736
 IR Inten    --      0.4534                13.6145               157.1605

                      4                      5                      6
                     B1                     A2                     B2
 Frequencies --    899.1588              1169.2690              1287.0135
 Red. masses --      1.3524                 1.0181                 1.1050
 Frc consts  --      0.6442                 0.8201                 1.0784
 IR Inten    --      1.3241                 0.0000                49.7099

                      7                      8                      9
                     A1                     A1                     B1
 Frequencies --   1462.5138              3121.8891              3199.5169
 Red. masses --      1.0753                 1.0527                 1.1176
 Frc consts  --      1.3551                 6.0451                 6.7408
 IR Inten    --      0.0407                 7.3175                 0.0061

 - Thermochemistry -
 -------------------
 Temperature   298.150 Kelvin.  Pressure   1.00000 Atm.
 Atom     1 has atomic number  6 and mass  12.00000

 Molecular mass:    83.95336 amu.
 Principal axes and moments of inertia in atomic units:
                           1         2         3
     Eigenvalues --    55.88446 558.41187 602.72182
           X            0.00000   0.00000   1.00000
           Y            1.00000   0.00000  -0.00000
           Z            0.00000   1.00000   0.00000
 This molecule is an asymmetric top.
 Rotational symmetry number  2.
 Rotational temperatures (Kelvin)      1.54987     0.15511     0.14370
 Rotational constants (GHZ):          32.29415     3.23192     2.99432
 Zero-point vibrational energy      76788.5 (Joules/Mol)
                                   18.35290 (Kcal/Mol)
 Warning -- explicit consideration of   1 degrees of freedom as
           vibrations may cause significant error
 Vibrational temperatures:    401.14  1007.20  1035.68  1293.69  1682.32
          (Kelvin)           1851.73  2104.23  4491.70  4603.39

 Zero-point correction=                           0.029247 (Hartree/Particle)
 Thermal correction to Energy=                    0.032835
 Thermal correction to Enthalpy=                  0.033780
 Thermal correction to Gibbs Free Energy=         0.003074
 Sum of electronic and zero-point Energies=           -959.768212
 Sum of electronic and thermal Energies=              -959.764623
 Sum of electronic and thermal Enthalpies=            -959.763679
 Sum of electronic and thermal Free Energies=         -959.794385

                     E (Thermal)             CV                S
                      KCal/Mol        Cal/Mol-Kelvin    Cal/Mol-Kelvin
 Total                   20.604             10.262             64.625
 Electronic               0.000              0.000              0.000
 Translational            0.889              2.981             39.197
 Rotational               0.889              2.981             23.068
 Vibrational             18.827              4.301              2.360
 Vibration     1          0.679              1.713              1.541

 Optimization completed.
    -- Stationary point found.
 Normal termination of Gaussian 16 at Wed Jun 15 11:44:46 2022.
