 Gaussian 16, Revision B.01,

 ---------------------------------------
 # b3lyp/gen opt freq CPHF(Grid=OneStep)
 ---------------------------------------

 ----------------------------
 carboxymethyl, B3LYP/pcseg-2
 ----------------------------
 Symbolic Z-matrix:
 Charge =  0 Multiplicity = 2

 SCF Done:  E(UB3LYP) =  -228.524634534     A.U. after   16 cycles
 Optimization completed.
    -- Stationary point found.
 Normal termination of Gaussian 16 at Thu Sep 28 15:12:48 2023.

 ------------------------------------------------------------------
 #N Geom=AllCheck Guess=TCheck SCRF=Check GenChk UB3LYP/ChkBas Freq
 ------------------------------------------------------------------

 Structure from the checkpoint file:  "ch2cooh.chk"
 ----------------------------
 carboxymethyl, B3LYP/pcseg-2
 ----------------------------
 Charge =  0 Multiplicity = 2

 SCF Done:  E(UB3LYP) =  -228.524634534     A.U. after    1 cycles

  Exact polarizability:  37.379  -2.524  35.916   0.000   0.000  20.675
 Approx polarizability:  46.429  -3.912  55.529  -0.000  -0.000  28.068

                      1                      2                      3
                     A"                     A'                     A"
 Frequencies --    307.8872               425.4891               544.2975
 Red. masses --      1.0550                 2.6666                 1.2091
 Frc consts  --      0.0589                 0.2844                 0.2110
 IR Inten    --      0.3268                 5.0811                90.8586

                      4                      5                      6
                     A'                     A"                     A"
 Frequencies --    581.2383               644.5231               781.2515
 Red. masses --      4.3727                 1.6011                 2.8125
 Frc consts  --      0.8704                 0.3919                 1.0114
 IR Inten    --     36.9158                 9.6387                68.3059

                      7                      8                      9
                     A'                     A'                     A'
 Frequencies --    911.6597               992.4082              1191.4154
 Red. masses --      4.3097                 1.6325                 1.8762
 Frc consts  --      2.1104                 0.9473                 1.5691
 IR Inten    --     26.0306                48.6632               217.3021

                     10                     11                     12
                     A'                     A'                     A'
 Frequencies --   1356.0224              1465.1127              1688.6913
 Red. masses --      2.0092                 1.3836                 8.7747
 Frc consts  --      2.1768                 1.7499                14.7430
 IR Inten    --     45.6429                43.7148               230.7545

                     13                     14                     15
                     A'                     A'                     A'
 Frequencies --   3176.5130              3296.8024              3764.3689
 Red. masses --      1.0507                 1.1219                 1.0644
 Frc consts  --      6.2464                 7.1842                 8.8864
 IR Inten    --      0.3010                 0.2959                76.9599

 - Thermochemistry -
 -------------------
 Temperature   298.150 Kelvin.  Pressure   1.00000 Atm.
 Atom     1 has atomic number  6 and mass  12.00000

 Molecular mass:    59.01330 amu.
 Principal axes and moments of inertia in atomic units:
                           1         2         3
     Eigenvalues --   154.58617 170.08619 324.67236
           X            0.99764   0.06865   0.00000
           Y           -0.06865   0.99764   0.00000
           Z           -0.00000   0.00000   1.00000
 This molecule is an asymmetric top.
 Rotational symmetry number  1.
 Rotational temperatures (Kelvin)      0.56030     0.50924     0.26677
 Rotational constants (GHZ):          11.67466    10.61075     5.55865
 Zero-point vibrational energy     126371.6 (Joules/Mol)
                                   30.20354 (Kcal/Mol)
 Warning -- explicit consideration of   4 degrees of freedom as
           vibrations may cause significant error
 Vibrational temperatures:    442.98   612.18   783.12   836.27   927.33
          (Kelvin)           1124.05  1311.67  1427.85  1714.18  1951.01
                             2107.97  2429.65  4570.29  4743.36  5416.09

 Zero-point correction=                           0.048132 (Hartree/Particle)
 Thermal correction to Energy=                    0.052369
 Thermal correction to Enthalpy=                  0.053314
 Thermal correction to Gibbs Free Energy=         0.021297
 Sum of electronic and zero-point Energies=           -228.476502
 Sum of electronic and thermal Energies=              -228.472265
 Sum of electronic and thermal Enthalpies=            -228.471321
 Sum of electronic and thermal Free Energies=         -228.503338

                     E (Thermal)             CV                S
                      KCal/Mol        Cal/Mol-Kelvin    Cal/Mol-Kelvin
 Total                   32.862             14.207             67.386
 Electronic               0.000              0.000              1.377
 Translational            0.889              2.981             38.146
 Rotational               0.889              2.981             23.661
 Vibrational             31.085              8.245              4.202
 Vibration     1          0.698              1.659              1.374
 Vibration     2          0.787              1.415              0.874
 Vibration     3          0.899              1.152              0.556
 Vibration     4          0.938              1.072              0.483

 Optimization completed.
    -- Stationary point found.
 Normal termination of Gaussian 16 at Thu Sep 28 15:16:19 2023.
 Gaussian 16:  ES64L-G16RevB.01 20-Dec-2017

 ---------------------------------
 # rohf/gen geom=check guess=check
 ---------------------------------

 -------------------------------
 carboxymethyl, ROHF/cc-pVTZ-F12
 -------------------------------
 Structure from the checkpoint file:  "ch2cooh.chk"
 Charge =  0 Multiplicity = 2

                         Standard orientation:
 ---------------------------------------------------------------------
 Center     Atomic      Atomic             Coordinates (Angstroms)
 Number     Number       Type             X           Y           Z
 ---------------------------------------------------------------------
      1          6           0        1.331853   -0.438530    0.000000
      2          6           0        0.000000    0.110986    0.000000
      3          8           0       -0.261159    1.297891    0.000000
      4          8           0       -0.967856   -0.846523    0.000000
      5          1           0       -1.818218   -0.386909    0.000000
      6          1           0        2.164095    0.245675    0.000000
      7          1           0        1.495126   -1.504445    0.000000
 ---------------------------------------------------------------------

 SCF Done:  E(ROHF) =  -227.285599973     A.U. after   14 cycles

 The electronic state is 2-A".
 Alpha  occ. eigenvalues --  -20.61326 -20.54850 -11.39294 -11.26942  -1.46288
 Alpha  occ. eigenvalues --   -1.35885  -1.00801  -0.81630  -0.71046  -0.68899
 Alpha  occ. eigenvalues --   -0.62857  -0.60477  -0.59443  -0.48606  -0.46336
 Alpha  occ. eigenvalues --   -0.11417
 Alpha virt. eigenvalues --    0.04442   0.05435   0.07016   0.07446   0.09047
 Alpha virt. eigenvalues --    0.09722   0.09853   0.15578   0.17353   0.17842
 Alpha virt. eigenvalues --    0.18213   0.19693   0.20793   0.21918   0.22474

 Mulliken charges and spin densities:
               1          2
     1  C   -0.219142   0.842914
     2  C    0.719526   0.063387
     3  O   -0.619137   0.050832
     4  O   -0.667089   0.007721
     5  H    0.423449   0.000576
     6  H    0.187577   0.016255
     7  H    0.174816   0.018316
 Sum of Mulliken charges =  -0.00000   1.00000

 Dipole moment (field-independent basis, Debye):
    X=              0.7123    Y=             -2.0077    Z=              0.0000  Tot=              2.1303
 Quadrupole moment (field-independent basis, Debye-Ang):
   XX=            -16.8092   YY=            -28.3938   ZZ=            -23.6308
   XY=             -0.4641   XZ=              0.0000   YZ=              0.0000

 Normal termination of Gaussian 16 at Thu Sep 28 15:17:40 2023.
