 Gaussian 16, Revision B.01,
 Gaussian 16:  ES64L-G16RevB.01 20-Dec-2017

 --------------------
 # b3lyp/gen opt freq
 --------------------

 -----------------------------
 2-hydroxyethyl, B3LYP/pcseg-2
 -----------------------------
 Symbolic Z-matrix:
 Charge =  0 Multiplicity = 2

 SCF Done:  E(UB3LYP) =  -154.440675191     A.U. after   14 cycles
 SCF Done:  E(UB3LYP) =  -154.440809253     A.U. after   10 cycles
 SCF Done:  E(UB3LYP) =  -154.440818058     A.U. after    8 cycles
 SCF Done:  E(UB3LYP) =  -154.440819732     A.U. after    8 cycles
 SCF Done:  E(UB3LYP) =  -154.440820877     A.U. after    8 cycles
 SCF Done:  E(UB3LYP) =  -154.440821332     A.U. after    8 cycles
 SCF Done:  E(UB3LYP) =  -154.440821754     A.U. after    8 cycles
 SCF Done:  E(UB3LYP) =  -154.440821901     A.U. after    7 cycles
 Optimization completed.
    -- Stationary point found.
 Normal termination of Gaussian 16 at Sat Jun 18 12:27:58 2022.

 ------------------------------------------------------------------
 #N Geom=AllCheck Guess=TCheck SCRF=Check GenChk UB3LYP/ChkBas Freq
 ------------------------------------------------------------------

 Structure from the checkpoint file:  "/wrk/irikura/Gau-5676.chk"
 -----------------------------
 2-hydroxyethyl, B3LYP/pcseg-2
 -----------------------------
 Charge =  0 Multiplicity = 2

                         Standard orientation:
 ---------------------------------------------------------------------
 Center     Atomic      Atomic             Coordinates (Angstroms)
 Number     Number       Type             X           Y           Z
 ---------------------------------------------------------------------
      1          6           0       -1.234655   -0.270301   -0.008195
      2          6           0        0.005282    0.537459    0.031825
      3          8           0        1.194319   -0.255444    0.042054
      4          1           0        1.158509   -0.857204   -0.707044
      5          1           0       -1.291467   -1.190591    0.556355
      6          1           0       -2.129100    0.103627   -0.485110
      7          1           0        0.022085    1.255943   -0.796800
      8          1           0        0.061667    1.128828    0.954388
 ---------------------------------------------------------------------

 SCF Done:  E(UB3LYP) =  -154.440821901     A.U. after    1 cycles

 The electronic state is 2-A.
 Alpha  occ. eigenvalues --  -19.12698 -10.22772 -10.18924  -1.02622  -0.75630
 Alpha  occ. eigenvalues --   -0.62720  -0.51312  -0.46026  -0.44802  -0.40826
 Alpha  occ. eigenvalues --   -0.34693  -0.29400  -0.22506
 Alpha virt. eigenvalues --    0.01458   0.04020   0.04803   0.06163   0.09203
 Alpha virt. eigenvalues --    0.12032   0.15494   0.16664   0.19357   0.23294
 Alpha virt. eigenvalues --    0.26156   0.28381   0.29197   0.32061   0.32329

  Beta  occ. eigenvalues --  -19.12612 -10.22858 -10.17508  -1.02392  -0.73727
  Beta  occ. eigenvalues --   -0.60861  -0.50956  -0.45375  -0.43813  -0.40126
  Beta  occ. eigenvalues --   -0.34145  -0.28883
  Beta virt. eigenvalues --   -0.08179   0.01720   0.04337   0.05082   0.06299
  Beta virt. eigenvalues --    0.09319   0.12173   0.15603   0.16761   0.22269
  Beta virt. eigenvalues --    0.23873   0.27315   0.29241   0.30300   0.32395

 Mulliken charges and spin densities:
               1          2
     1  C   -0.198977   1.047598
     2  C    0.250083  -0.071690
     3  O   -0.404416   0.017882
     4  H    0.177243   0.008084
     5  H    0.071856  -0.036367
     6  H    0.055159  -0.035511
     7  H    0.016293   0.013295
     8  H    0.032760   0.056709
 Sum of Mulliken charges =  -0.00000   1.00000

 Dipole moment (field-independent basis, Debye):
    X=             -1.2631    Y=              0.0588    Z=             -0.9808  Tot=              1.6002
 Quadrupole moment (field-independent basis, Debye-Ang):
   XX=            -21.8214   YY=            -18.2516   ZZ=            -18.9773
   XY=             -0.7061   XZ=             -1.3984   YZ=              0.8013

  Exact polarizability:  34.628   0.677  30.790   0.052   0.303  27.062
 Approx polarizability:  42.332  -0.053  39.830   0.601   0.827  36.464

                      1                      2                      3
                      A                      A                      A
 Frequencies --    183.6133               324.5537               426.7973
 Red. masses --      1.0773                 1.0933                 2.2629
 Frc consts  --      0.0214                 0.0679                 0.2429
 IR Inten    --      2.9846               110.4959                16.3226

                      4                      5                      6
                      A                      A                      A
 Frequencies --    550.8101               827.4308               948.1127
 Red. masses --      1.3622                 1.3367                 2.8410
 Frc consts  --      0.2435                 0.5392                 1.5047
 IR Inten    --     51.1435                 1.1243                63.7748

                      7                      8                      9
                      A                      A                      A
 Frequencies --   1079.6168              1120.0572              1179.9975
 Red. masses --      3.7646                 1.9096                 1.0785
 Frc consts  --      2.5853                 1.4114                 0.8848
 IR Inten    --     50.2251                 0.9332                26.3426

                     10                     11                     12
                      A                      A                      A
 Frequencies --   1357.8282              1396.3266              1454.0664
 Red. masses --      1.1935                 1.2250                 1.2080
 Frc consts  --      1.2965                 1.4073                 1.5048
 IR Inten    --      7.1365                30.4887                 5.6637

                     13                     14                     15
                      A                      A                      A
 Frequencies --   1483.1646              2972.5013              2991.9851
 Red. masses --      1.0728                 1.0555                 1.1025
 Frc consts  --      1.3905                 5.4948                 5.8151
 IR Inten    --      2.5062                38.9692                35.7804

                     16                     17                     18
                      A                      A                      A
 Frequencies --   3143.8233              3251.0489              3811.8170
 Red. masses --      1.0507                 1.1191                 1.0663
 Frc consts  --      6.1187                 6.9686                 9.1287
 IR Inten    --      6.6299                 8.4668                22.5240

 - Thermochemistry -
 -------------------
 Temperature   298.150 Kelvin.  Pressure   1.00000 Atm.
 Atom     1 has atomic number  6 and mass  12.00000

 Molecular mass:    45.03404 amu.
 Principal axes and moments of inertia in atomic units:
                           1         2         3
     Eigenvalues --    46.69279 183.06056 210.87881
           X            0.99990   0.01030  -0.00955
           Y           -0.01035   0.99993  -0.00490
           Z            0.00950   0.00499   0.99994
 This molecule is an asymmetric top.
 Rotational symmetry number  1.
 Rotational temperatures (Kelvin)      1.85497     0.47314     0.41073
 Rotational constants (GHZ):          38.65139     9.85871     8.55819
 Zero-point vibrational energy     170489.1 (Joules/Mol)
                                   40.74787 (Kcal/Mol)
 Warning -- explicit consideration of   4 degrees of freedom as
           vibrations may cause significant error
 Vibrational temperatures:    264.18   466.96   614.07   792.49  1190.49
          (Kelvin)           1364.12  1553.33  1611.51  1697.75  1953.61
                             2009.00  2092.08  2133.94  4276.77  4304.80
                             4523.26  4677.53  5484.35

 Zero-point correction=                           0.064936 (Hartree/Particle)
 Thermal correction to Energy=                    0.069431
 Thermal correction to Enthalpy=                  0.070375
 Thermal correction to Gibbs Free Energy=         0.038845
 Sum of electronic and zero-point Energies=           -154.375886
 Sum of electronic and thermal Energies=              -154.371391
 Sum of electronic and thermal Enthalpies=            -154.370447
 Sum of electronic and thermal Free Energies=         -154.401977

                     E (Thermal)             CV                S
                      KCal/Mol        Cal/Mol-Kelvin    Cal/Mol-Kelvin
 Total                   43.568             14.221             66.361
 Electronic               0.000              0.000              1.377
 Translational            0.889              2.981             37.340
 Rotational               0.889              2.981             22.115
 Vibrational             41.791              8.259              5.528
 Vibration     1          0.631              1.862              2.291
 Vibration     2          0.709              1.626              1.287
 Vibration     3          0.788              1.412              0.869
 Vibration     4          0.906              1.138              0.542

 Optimization completed.
    -- Stationary point found.
 Normal termination of Gaussian 16 at Sat Jun 18 12:29:14 2022.
