 Gaussian 16, Revision B.01,

 ---------------------------------------
 # b3lyp/gen opt freq CPHF(Grid=OneStep)
 ---------------------------------------

 -----------------------------
 chloromethanol, B3LYP/pcseg-2
 -----------------------------
 Symbolic Z-matrix:
 Charge =  0 Multiplicity = 1

 SCF Done:  E(RB3LYP) =  -575.420970708     A.U. after   12 cycles
 Optimization completed.
    -- Stationary point found.
 Normal termination of Gaussian 16 at Sat Sep 30 21:16:04 2023.

 ------------------------------------------------------------------
 #N Geom=AllCheck Guess=TCheck SCRF=Check GenChk RB3LYP/ChkBas Freq
 ------------------------------------------------------------------

 Structure from the checkpoint file:  "ch2cloh.chk"
 -----------------------------
 chloromethanol, B3LYP/pcseg-2
 -----------------------------
 Charge =  0 Multiplicity = 1

 SCF Done:  E(RB3LYP) =  -575.420970708     A.U. after    1 cycles

  Exact polarizability:  38.775  -2.209  26.612  -0.784  -0.556  23.913
 Approx polarizability:  55.108  -4.221  36.748  -0.678  -1.050  33.607

                      1                      2                      3
                      A                      A                      A
 Frequencies --    338.2156               433.4487               649.7731
 Red. masses --      1.9923                 1.9721                 6.6859
 Frc consts  --      0.1343                 0.2183                 1.6632
 IR Inten    --     71.1706                80.5991               129.3329

                      4                      5                      6
                      A                      A                      A
 Frequencies --    959.1581              1107.0521              1189.9797
 Red. masses --      1.2538                 5.8602                 1.0761
 Frc consts  --      0.6796                 4.2315                 0.8978
 IR Inten    --     16.3301               236.2910                 5.9895

                      7                      8                      9
                      A                      A                      A
 Frequencies --   1339.0501              1397.8038              1507.7662
 Red. masses --      1.1285                 1.2292                 1.0980
 Frc consts  --      1.1922                 1.4151                 1.4706
 IR Inten    --     29.9527                39.0400                 1.7376

                     10                     11                     12
                      A                      A                      A
 Frequencies --   3078.0406              3172.6708              3811.2560
 Red. masses --      1.0602                 1.1096                 1.0661
 Frc consts  --      5.9184                 6.5804                 9.1240
 IR Inten    --     28.6837                 5.5720                53.6276

 - Thermochemistry -
 -------------------
 Temperature   298.150 Kelvin.  Pressure   1.00000 Atm.
 Atom     1 has atomic number  6 and mass  12.00000

 Molecular mass:    65.98724 amu.
 Principal axes and moments of inertia in atomic units:
                           1         2         3
     Eigenvalues --    45.61426 327.93818 357.48292
           X            0.99991  -0.00046  -0.01356
           Y           -0.00034   0.99825  -0.05907
           Z            0.01357   0.05907   0.99816
 This molecule is an asymmetric top.
 Rotational symmetry number  1.
 Rotational temperatures (Kelvin)      1.89883     0.26412     0.24229
 Rotational constants (GHZ):          39.56528     5.50330     5.04847
 Zero-point vibrational energy     113550.8 (Joules/Mol)
                                   27.13930 (Kcal/Mol)
 Warning -- explicit consideration of   2 degrees of freedom as
           vibrations may cause significant error
 Vibrational temperatures:    486.62   623.64   934.88  1380.01  1592.80
          (Kelvin)           1712.12  1926.59  2011.13  2169.34  4428.61
                             4564.77  5483.55

 Zero-point correction=                           0.043249 (Hartree/Particle)
 Thermal correction to Energy=                    0.046976
 Thermal correction to Enthalpy=                  0.047920
 Thermal correction to Gibbs Free Energy=         0.017330
 Sum of electronic and zero-point Energies=           -575.377721
 Sum of electronic and thermal Energies=              -575.373995
 Sum of electronic and thermal Enthalpies=            -575.373051
 Sum of electronic and thermal Free Energies=         -575.403640

                     E (Thermal)             CV                S
                      KCal/Mol        Cal/Mol-Kelvin    Cal/Mol-Kelvin
 Total                   29.478             11.106             64.381
 Electronic               0.000              0.000              0.000
 Translational            0.889              2.981             38.479
 Rotational               0.889              2.981             23.196
 Vibrational             27.700              5.144              2.706
 Vibration     1          0.719              1.599              1.221
 Vibration     2          0.794              1.397              0.847

 Optimization completed.
    -- Stationary point found.
 Normal termination of Gaussian 16 at Sat Sep 30 21:17:29 2023.
 Gaussian 16:  ES64L-G16RevB.01 20-Dec-2017

 ---------------------------------
 # rohf/gen geom=check guess=check
 ---------------------------------

 --------------------------------
 chloromethanol, ROHF/cc-pVTZ-F12
 --------------------------------
 Structure from the checkpoint file:  "ch2cloh.chk"
 Charge =  0 Multiplicity = 1

                         Standard orientation:
 ---------------------------------------------------------------------
 Center     Atomic      Atomic             Coordinates (Angstroms)
 Number     Number       Type             X           Y           Z
 ---------------------------------------------------------------------
      1          6           0       -0.579950    0.590081    0.043212
      2          8           0       -1.567610   -0.355243   -0.118565
      3         17           0        1.110170   -0.126579   -0.009673
      4          1           0       -0.633932    1.278494   -0.791157
      5          1           0       -0.624826    1.110924    0.996806
      6          1           0       -1.593553   -0.936125    0.648044
 ---------------------------------------------------------------------

 SCF Done:  E(ROHF) =  -574.047055094     A.U. after   11 cycles

 The electronic state is 1-A.
 Alpha  occ. eigenvalues -- -104.82424 -20.59714 -11.35870 -10.54963  -8.01644
 Alpha  occ. eigenvalues --   -8.01511  -8.01502  -1.41394  -1.10898  -0.91595
 Alpha  occ. eigenvalues --   -0.74068  -0.66150  -0.63035  -0.55074  -0.47810
 Alpha  occ. eigenvalues --   -0.44930  -0.43964
 Alpha virt. eigenvalues --    0.05038   0.06102   0.06711   0.07136   0.10806
 Alpha virt. eigenvalues --    0.12103   0.12453   0.14905   0.15723   0.19054
 Alpha virt. eigenvalues --    0.21404   0.22326   0.23374   0.23960   0.24306

 Mulliken charges and spin densities:
               1          2
     1  C    0.067504   0.000000
     2  O   -0.602809   0.000000
     3  Cl  -0.132705   0.000000
     4  H    0.146499   0.000000
     5  H    0.124068   0.000000
     6  H    0.397443   0.000000
 Sum of Mulliken charges =  -0.00000   0.00000

 Dipole moment (field-independent basis, Debye):
    X=             -1.3095    Y=              0.8095    Z=              1.4366  Tot=              2.1057
 Quadrupole moment (field-independent basis, Debye-Ang):
   XX=            -27.9014   YY=            -23.0569   ZZ=            -24.0963
   XY=              0.0692   XZ=             -2.5682   YZ=             -1.6538

 Normal termination of Gaussian 16 at Sat Sep 30 21:18:05 2023.
