 Gaussian 16, Revision B.01,
 Gaussian 16:  ES64L-G16RevB.01 20-Dec-2017

 --------------------
 # b3lyp/gen opt freq
 --------------------

 ----------------------------------
 chlorofluoromethane, B3LYP/pcseg-2
 ----------------------------------
 Symbolic Z-matrix:
 Charge =  0 Multiplicity = 1

 SCF Done:  E(RB3LYP) =  -599.443834705     A.U. after   12 cycles
 SCF Done:  E(RB3LYP) =  -599.443888073     A.U. after    8 cycles
 SCF Done:  E(RB3LYP) =  -599.443900901     A.U. after    8 cycles
 SCF Done:  E(RB3LYP) =  -599.443902135     A.U. after    7 cycles
 Optimization completed.
    -- Stationary point found.
 Normal termination of Gaussian 16 at Thu Jun 16 16:10:22 2022.

 ------------------------------------------------------------------
 #N Geom=AllCheck Guess=TCheck SCRF=Check GenChk RB3LYP/ChkBas Freq
 ------------------------------------------------------------------

 Structure from the checkpoint file:  "/wrk/irikura/Gau-31101.chk"
 ----------------------------------
 chlorofluoromethane, B3LYP/pcseg-2
 ----------------------------------
 Charge =  0 Multiplicity = 1

                         Standard orientation:
 ---------------------------------------------------------------------
 Center     Atomic      Atomic             Coordinates (Angstroms)
 Number     Number       Type             X           Y           Z
 ---------------------------------------------------------------------
      1          6           0        0.000000    0.809279    0.000000
      2          9           0        1.363971    0.761794    0.000000
      3         17           0       -0.682289   -0.842547    0.000000
      4          1           0       -0.338414    1.305742    0.904071
      5          1           0       -0.338414    1.305742   -0.904071
 ---------------------------------------------------------------------

 SCF Done:  E(RB3LYP) =  -599.443902135     A.U. after    1 cycles

 The electronic state is 1-A'.
 Alpha  occ. eigenvalues -- -101.51956 -24.69815 -10.32292  -9.46519  -7.22669
 Alpha  occ. eigenvalues --   -7.21821  -7.21759  -1.23689  -0.86888  -0.69585
 Alpha  occ. eigenvalues --   -0.53978  -0.53954  -0.50036  -0.39881  -0.38939
 Alpha  occ. eigenvalues --   -0.33346  -0.31837
 Alpha virt. eigenvalues --   -0.00289   0.03063   0.05513   0.05548   0.12610
 Alpha virt. eigenvalues --    0.20187   0.22737   0.24302   0.29832   0.30609
 Alpha virt. eigenvalues --    0.33006   0.33444   0.34585   0.43138   0.45320

 Mulliken charges:
               1
     1  C    0.287155
     2  F   -0.271130
     3  Cl  -0.133584
     4  H    0.058779
     5  H    0.058779
 Sum of Mulliken charges =   0.00000

 Dipole moment (field-independent basis, Debye):
    X=             -1.0412    Y=              1.6051    Z=             -0.0000  Tot=              1.9132
 Quadrupole moment (field-independent basis, Debye-Ang):
   XX=            -26.7271   YY=            -22.5996   ZZ=            -23.4374
   XY=             -1.4858   XZ=              0.0000   YZ=             -0.0000

  Exact polarizability:  24.237   4.955  30.746  -0.000  -0.000  20.245
 Approx polarizability:  34.036   7.611  43.429   0.000  -0.000  27.535

                      1                      2                      3
                     A'                     A'                     A"
 Frequencies --    378.3593               732.1642              1002.6548
 Red. masses --     15.7643                 6.7007                 1.3255
 Frc consts  --      1.3296                 2.1163                 0.7851
 IR Inten    --      1.1136               104.2950                 0.4211

                      4                      5                      6
                     A'                     A"                     A'
 Frequencies --   1068.2594              1252.7623              1371.2877
 Red. masses --      9.3806                 1.0870                 1.1340
 Frc consts  --      6.3072                 1.0051                 1.2563
 IR Inten    --    184.2227                 2.7255                37.7853

                      7                      8                      9
                     A'                     A'                     A"
 Frequencies --   1500.0303              3089.9782              3166.4653
 Red. masses --      1.0831                 1.0509                 1.1190
 Frc consts  --      1.4358                 5.9118                 6.6106
 IR Inten    --      0.0988                22.1724                 7.6482

 - Thermochemistry -
 -------------------
 Temperature   298.150 Kelvin.  Pressure   1.00000 Atm.
 Atom     1 has atomic number  6 and mass  12.00000

 Molecular mass:    67.98291 amu.
 Principal axes and moments of inertia in atomic units:
                           1         2         3
     Eigenvalues --    42.86353 321.96959 353.06659
           X            0.72843  -0.68512   0.00000
           Y            0.68512   0.72843   0.00000
           Z           -0.00000  -0.00000   1.00000
 This molecule is an asymmetric top.
 Rotational symmetry number  1.
 Rotational temperatures (Kelvin)      2.02069     0.26901     0.24532
 Rotational constants (GHZ):          42.10435     5.60532     5.11162
 Zero-point vibrational energy      81118.5 (Joules/Mol)
                                   19.38780 (Kcal/Mol)
 Warning -- explicit consideration of   1 degrees of freedom as
           vibrations may cause significant error
 Vibrational temperatures:    544.37  1053.42  1442.60  1536.99  1802.45
          (Kelvin)           1972.98  2158.21  4445.79  4555.84

 Zero-point correction=                           0.030896 (Hartree/Particle)
 Thermal correction to Energy=                    0.034252
 Thermal correction to Enthalpy=                  0.035196
 Thermal correction to Gibbs Free Energy=         0.005160
 Sum of electronic and zero-point Energies=           -599.413006
 Sum of electronic and thermal Energies=              -599.409650
 Sum of electronic and thermal Enthalpies=            -599.408706
 Sum of electronic and thermal Free Energies=         -599.438742

                     E (Thermal)             CV                S
                      KCal/Mol        Cal/Mol-Kelvin    Cal/Mol-Kelvin
 Total                   21.493              9.294             63.216
 Electronic               0.000              0.000              0.000
 Translational            0.889              2.981             38.568
 Rotational               0.889              2.981             23.104
 Vibrational             19.716              3.332              1.545
 Vibration     1          0.749              1.516              1.046

 Optimization completed.
    -- Stationary point found.
 Normal termination of Gaussian 16 at Thu Jun 16 16:10:37 2022.
