 Gaussian 16, Revision B.01,
 Gaussian 16:  ES64L-G16RevB.01 20-Dec-2017

 --------------------
 # b3lyp/gen opt freq
 --------------------

 --------------------
 CH2F2, B3LYP/pcseg-2
 --------------------
 Symbolic Z-matrix:
 Charge =  0 Multiplicity = 1

 SCF Done:  E(RB3LYP) =  -239.094549121     A.U. after   10 cycles
 SCF Done:  E(RB3LYP) =  -239.094781001     A.U. after    7 cycles
 SCF Done:  E(RB3LYP) =  -239.094814429     A.U. after    7 cycles
 Optimization completed.
    -- Stationary point found.
 Normal termination of Gaussian 16 at Wed Jun 15 11:44:55 2022.

 ------------------------------------------------------------------
 #N Geom=AllCheck Guess=TCheck SCRF=Check GenChk RB3LYP/ChkBas Freq
 ------------------------------------------------------------------

 Structure from the checkpoint file:  "/wrk/irikura/Gau-16540.chk"
 --------------------
 CH2F2, B3LYP/pcseg-2
 --------------------
 Charge =  0 Multiplicity = 1

                         Standard orientation:
 ---------------------------------------------------------------------
 Center     Atomic      Atomic             Coordinates (Angstroms)
 Number     Number       Type             X           Y           Z
 ---------------------------------------------------------------------
      1          6           0       -0.000000   -0.000000    0.504737
      2          1           0       -0.910364    0.000000    1.103456
      3          1           0        0.910364   -0.000000    1.103456
      4          9           0        0.000000    1.105884   -0.290852
      5          9           0       -0.000000   -1.105884   -0.290852
 ---------------------------------------------------------------------

 SCF Done:  E(RB3LYP) =  -239.094814429     A.U. after    1 cycles

 The electronic state is 1-A1.
 Alpha  occ. eigenvalues --  -24.69458 -24.69458 -10.34251  -1.26148  -1.20624
 Alpha  occ. eigenvalues --   -0.71877  -0.56066  -0.55668  -0.55438  -0.43736
 Alpha  occ. eigenvalues --   -0.42759  -0.41716  -0.36016
 Alpha virt. eigenvalues --    0.01787   0.05902   0.06014   0.07818   0.21002
 Alpha virt. eigenvalues --    0.23425   0.24690   0.25876   0.30588   0.30922
 Alpha virt. eigenvalues --    0.40392   0.45040   0.45462   0.46491   0.59873

 Mulliken charges:
               1
     1  C    0.521824
     2  H    0.021887
     3  H    0.021887
     4  F   -0.282799
     5  F   -0.282799
 Sum of Mulliken charges =  -0.00000

 Dipole moment (field-independent basis, Debye):
    X=              0.0000    Y=              0.0000    Z=              2.0036  Tot=              2.0036
 Quadrupole moment (field-independent basis, Debye-Ang):
   XX=            -15.3735   YY=            -19.3194   ZZ=            -15.4393
   XY=             -0.0000   XZ=             -0.0000   YZ=             -0.0000

  Exact polarizability:  14.699  -0.000  16.789  -0.000  -0.000  15.723
 Approx polarizability:  17.877  -0.000  21.639   0.000  -0.000  19.519

                      1                      2                      3
                     A1                     B2                     A1
 Frequencies --    523.9208              1070.7981              1107.4433
 Red. masses --     12.4763                 8.6046                 7.7113
 Frc consts  --      2.0178                 5.8129                 5.5721
 IR Inten    --      4.7088               264.5875               105.2105

                      4                      5                      6
                     B1                     A2                     B2
 Frequencies --   1181.2372              1269.0274              1457.5662
 Red. masses --      1.4989                 1.0421                 1.1524
 Frc consts  --      1.2323                 0.9888                 1.4425
 IR Inten    --     17.9364                 0.0000                17.3024

                      7                      8                      9
                     A1                     A1                     B1
 Frequencies --   1530.9619              3055.9887              3126.4418
 Red. masses --      1.0934                 1.0498                 1.1199
 Frc consts  --      1.5100                 5.7765                 6.4496
 IR Inten    --      0.7112                43.6972                36.2958

 - Thermochemistry -
 -------------------
 Temperature   298.150 Kelvin.  Pressure   1.00000 Atm.
 Atom     1 has atomic number  6 and mass  12.00000

 Molecular mass:    52.01246 amu.
 Principal axes and moments of inertia in atomic units:
                           1         2         3
     Eigenvalues --    36.59866 171.91022 196.57800
           X            0.00000   0.00000   1.00000
           Y            1.00000   0.00000  -0.00000
           Z            0.00000   1.00000   0.00000
 This molecule is an asymmetric top.
 Rotational symmetry number  2.
 Rotational temperatures (Kelvin)      2.36659     0.50383     0.44061
 Rotational constants (GHZ):          49.31167    10.49816     9.18079
 Zero-point vibrational energy      85672.9 (Joules/Mol)
                                   20.47631 (Kcal/Mol)
 Warning -- explicit consideration of   1 degrees of freedom as
           vibrations may cause significant error
 Vibrational temperatures:    753.81  1540.64  1593.36  1699.54  1825.85
          (Kelvin)           2097.11  2202.71  4396.89  4498.25

 Zero-point correction=                           0.032631 (Hartree/Particle)
 Thermal correction to Energy=                    0.035764
 Thermal correction to Enthalpy=                  0.036708
 Thermal correction to Gibbs Free Energy=         0.008692
 Sum of electronic and zero-point Energies=           -239.062183
 Sum of electronic and thermal Energies=              -239.059051
 Sum of electronic and thermal Enthalpies=            -239.058106
 Sum of electronic and thermal Free Energies=         -239.086123

                     E (Thermal)             CV                S
                      KCal/Mol        Cal/Mol-Kelvin    Cal/Mol-Kelvin
 Total                   22.442              8.274             58.965
 Electronic               0.000              0.000              0.000
 Translational            0.889              2.981             37.769
 Rotational               0.889              2.981             20.364
 Vibrational             20.665              2.312              0.832
 Vibration     1          0.879              1.197              0.601

 Optimization completed.
    -- Stationary point found.
 Normal termination of Gaussian 16 at Wed Jun 15 11:45:08 2022.
