 Gaussian 16, Revision B.01,
 Gaussian 16:  ES64L-G16RevB.01 20-Dec-2017

 --------------------
 # b3lyp/gen opt freq
 --------------------

 ---------------------------------
 1,2-difluoroethane, B3LYP/pcseg-2
 ---------------------------------
 Symbolic Z-matrix:
 Charge =  0 Multiplicity = 1

 SCF Done:  E(RB3LYP) =  -278.416965103     A.U. after   11 cycles
 SCF Done:  E(RB3LYP) =  -278.416981543     A.U. after    7 cycles
 Optimization completed.
    -- Stationary point found.
 Normal termination of Gaussian 16 at Fri Jun 17 14:16:25 2022.

 ------------------------------------------------------------------
 #N Geom=AllCheck Guess=TCheck SCRF=Check GenChk RB3LYP/ChkBas Freq
 ------------------------------------------------------------------

 Structure from the checkpoint file:  "/wrk/irikura/Gau-5957.chk"
 ---------------------------------
 1,2-difluoroethane, B3LYP/pcseg-2
 ---------------------------------
 Charge =  0 Multiplicity = 1

                         Standard orientation:
 ---------------------------------------------------------------------
 Center     Atomic      Atomic             Coordinates (Angstroms)
 Number     Number       Type             X           Y           Z
 ---------------------------------------------------------------------
      1          6           0        0.268568    0.701720    0.508501
      2          6           0       -0.268568   -0.701720    0.508501
      3          9           0       -0.268568    1.438141   -0.543323
      4          9           0        0.268568   -1.438141   -0.543323
      5          1           0       -0.005957    1.198935    1.441813
      6          1           0        1.353622    0.702530    0.397089
      7          1           0        0.005957   -1.198935    1.441813
      8          1           0       -1.353622   -0.702530    0.397089
 ---------------------------------------------------------------------

 SCF Done:  E(RB3LYP) =  -278.416981543     A.U. after    1 cycles

 The electronic state is 1-A.
 Alpha  occ. eigenvalues --  -24.67009 -24.67009 -10.26453 -10.26425  -1.20732
 Alpha  occ. eigenvalues --   -1.19695  -0.78334  -0.65145  -0.53361  -0.53301
 Alpha  occ. eigenvalues --   -0.50679  -0.47645  -0.47178  -0.40974  -0.36422
 Alpha  occ. eigenvalues --   -0.36309  -0.34620
 Alpha virt. eigenvalues --    0.01087   0.04051   0.05237   0.05726   0.06977
 Alpha virt. eigenvalues --    0.07806   0.13701   0.15800   0.22898   0.24379
 Alpha virt. eigenvalues --    0.24729   0.29286   0.29950   0.31697   0.32989

 Mulliken charges:
               1
     1  C    0.274538
     2  C    0.274538
     3  F   -0.316663
     4  F   -0.316663
     5  H    0.013369
     6  H    0.028756
     7  H    0.013369
     8  H    0.028756
 Sum of Mulliken charges =   0.00000

 Dipole moment (field-independent basis, Debye):
    X=              0.0000    Y=              0.0000    Z=              2.8081  Tot=              2.8081
 Quadrupole moment (field-independent basis, Debye-Ang):
   XX=            -21.9268   YY=            -26.6571   ZZ=            -22.6537
   XY=              1.7859   XZ=              0.0000   YZ=              0.0000

  Exact polarizability:  26.406   0.286  28.674  -0.000   0.000  27.486
 Approx polarizability:  34.549  -0.895  34.763  -0.000  -0.000  36.865

                      1                      2                      3
                      A                      A                      B
 Frequencies --    148.8029               324.8734               497.1160
 Red. masses --      4.4807                 2.6331                 2.4176
 Frc consts  --      0.0585                 0.1637                 0.3520
 IR Inten    --      4.0507                 0.3835                16.6022

                      4                      5                      6
                      A                      B                      B
 Frequencies --    866.1633               901.2875              1076.1188
 Red. masses --      2.6330                 2.2162                 3.6464
 Frc consts  --      1.1639                 1.0607                 2.4879
 IR Inten    --     27.6808                51.7763                53.6267

                      7                      8                      9
                      A                      A                      B
 Frequencies --   1098.8919              1125.0553              1258.4900
 Red. masses --      3.9710                 2.1062                 1.1022
 Frc consts  --      2.8253                 1.5707                 1.0286
 IR Inten    --     93.3435                 1.6438                 5.8514

                     10                     11                     12
                      A                      B                      A
 Frequencies --   1301.2330              1403.1621              1432.8751
 Red. masses --      1.0735                 1.2265                 1.4102
 Frc consts  --      1.0710                 1.4228                 1.7059
 IR Inten    --      2.2767                 8.8525                11.0334

                     13                     14                     15
                      B                      A                      B
 Frequencies --   1486.7105              1486.7773              3035.4598
 Red. masses --      1.0844                 1.0915                 1.0583
 Frc consts  --      1.4122                 1.4216                 5.7450
 IR Inten    --      8.3769                 0.4620                 8.1453

                     16                     17                     18
                      A                      A                      B
 Frequencies --   3046.0565              3089.0764              3102.6662
 Red. masses --      1.0576                 1.1083                 1.1064
 Frc consts  --      5.7818                 6.2309                 6.2753
 IR Inten    --     37.2918                13.3832                34.0619

 - Thermochemistry -
 -------------------
 Temperature   298.150 Kelvin.  Pressure   1.00000 Atm.
 Atom     1 has atomic number  6 and mass  12.00000

 Molecular mass:    66.02811 amu.
 Principal axes and moments of inertia in atomic units:
                           1         2         3
     Eigenvalues --   103.46428 365.89838 416.64005
           X           -0.09450   0.00000   0.99552
           Y            0.99552   0.00000   0.09450
           Z           -0.00000   1.00000  -0.00000
 This molecule is an asymmetric top.
 Rotational symmetry number  2.
 Rotational temperatures (Kelvin)      0.83714     0.23672     0.20789
 Rotational constants (GHZ):          17.44313     4.93236     4.33166
 Zero-point vibrational energy     159586.7 (Joules/Mol)
                                   38.14214 (Kcal/Mol)
 Warning -- explicit consideration of   3 degrees of freedom as
           vibrations may cause significant error
 Vibrational temperatures:    214.09   467.42   715.24  1246.22  1296.75
          (Kelvin)           1548.29  1581.06  1618.70  1810.69  1872.18
                             2018.84  2061.59  2139.04  2139.14  4367.35
                             4382.60  4444.49  4464.04

 Zero-point correction=                           0.060783 (Hartree/Particle)
 Thermal correction to Energy=                    0.065116
 Thermal correction to Enthalpy=                  0.066060
 Thermal correction to Gibbs Free Energy=         0.034409
 Sum of electronic and zero-point Energies=           -278.356198
 Sum of electronic and thermal Energies=              -278.351865
 Sum of electronic and thermal Enthalpies=            -278.350921
 Sum of electronic and thermal Free Energies=         -278.382573

                     E (Thermal)             CV                S
                      KCal/Mol        Cal/Mol-Kelvin    Cal/Mol-Kelvin
 Total                   40.861             13.309             66.616
 Electronic               0.000              0.000              0.000
 Translational            0.889              2.981             38.481
 Rotational               0.889              2.981             22.893
 Vibrational             39.084              7.347              5.242
 Vibration     1          0.618              1.904              2.687
 Vibration     2          0.709              1.626              1.285
 Vibration     3          0.853              1.256              0.665

 Optimization completed.
    -- Stationary point found.
 Normal termination of Gaussian 16 at Fri Jun 17 14:17:06 2022.
