 Gaussian 16, Revision B.01,
 Gaussian 16:  ES64L-G16RevB.01 20-Dec-2017

 --------------------
 # b3lyp/gen opt freq
 --------------------

 --------------------------
 2-aza-allyl, B3LYP/pcseg-2
 --------------------------
 Symbolic Z-matrix:
 Charge =  0 Multiplicity = 2

 SCF Done:  E(UB3LYP) =  -133.338409278     A.U. after   14 cycles
 SCF Done:  E(UB3LYP) =  -133.350029770     A.U. after   12 cycles
 SCF Done:  E(UB3LYP) =  -133.350488468     A.U. after   10 cycles
 SCF Done:  E(UB3LYP) =  -133.350502216     A.U. after    8 cycles
 Optimization completed.
    -- Stationary point found.
 Normal termination of Gaussian 16 at Tue Sep 12 10:25:32 2023.

 ------------------------------------------------------------------
 #N Geom=AllCheck Guess=TCheck SCRF=Check GenChk UB3LYP/ChkBas Freq
 ------------------------------------------------------------------

 Structure from the checkpoint file:  "/wrk/irikura/Gau-328836.chk"
 --------------------------
 2-aza-allyl, B3LYP/pcseg-2
 --------------------------
 Charge =  0 Multiplicity = 2

                         Standard orientation:
 ---------------------------------------------------------------------
 Center     Atomic      Atomic             Coordinates (Angstroms)
 Number     Number       Type             X           Y           Z
 ---------------------------------------------------------------------
      1          7           0       -0.000000   -0.000000    0.505058
      2          6           0        0.000000    1.138965   -0.154204
      3          6           0       -0.000000   -1.138965   -0.154204
      4          1           0       -0.000000    2.065864    0.403291
      5          1           0       -0.000000   -2.065864    0.403291
      6          1           0        0.000000    1.181297   -1.245769
      7          1           0       -0.000000   -1.181297   -1.245769
 ---------------------------------------------------------------------

 SCF Done:  E(UB3LYP) =  -133.350502216     A.U. after    1 cycles

 The electronic state is 2-A2.
 Alpha  occ. eigenvalues --  -14.32573 -10.21958 -10.21957  -0.94355  -0.72223
 Alpha  occ. eigenvalues --   -0.58992  -0.49429  -0.49137  -0.40821  -0.39082
 Alpha  occ. eigenvalues --   -0.26834  -0.22214
 Alpha virt. eigenvalues --   -0.01174   0.02357   0.04723   0.06197   0.09183
 Alpha virt. eigenvalues --    0.10308   0.16314   0.17646   0.18881   0.20418
 Alpha virt. eigenvalues --    0.25225   0.26402   0.30875   0.32718   0.32855

  Beta  occ. eigenvalues --  -14.32981 -10.20983 -10.20982  -0.93949  -0.69859
  Beta  occ. eigenvalues --   -0.57730  -0.48913  -0.48545  -0.40251  -0.36753
  Beta  occ. eigenvalues --   -0.27087
  Beta virt. eigenvalues --   -0.09983   0.00922   0.02589   0.04944   0.06285
  Beta virt. eigenvalues --    0.09290   0.10461   0.17683   0.19253   0.19810
  Beta virt. eigenvalues --    0.22600   0.26484   0.26813   0.31607   0.33218

 Mulliken charges and spin densities:
               1          2
     1  N   -0.287274  -0.210579
     2  C    0.072358   0.654623
     3  C    0.072358   0.654623
     4  H    0.059364  -0.026657
     5  H    0.059364  -0.026657
     6  H    0.011915  -0.022677
     7  H    0.011915  -0.022677
 Sum of Mulliken charges =   0.00000   1.00000

 Dipole moment (field-independent basis, Debye):
    X=             -0.0000    Y=              0.0000    Z=             -1.5168  Tot=              1.5168
 Quadrupole moment (field-independent basis, Debye-Ang):
   XX=            -20.4206   YY=            -15.7001   ZZ=            -20.0134
   XY=              0.0000   XZ=             -0.0000   YZ=              0.0000

  Exact polarizability:  21.415  -0.000  51.169   0.000  -0.000  31.392
 Approx polarizability:  29.198   0.000  71.914   0.000   0.000  43.079

                      1                      2                      3
                     A2                     A1                     B1
 Frequencies --    326.5721               470.6505               587.9697
 Red. masses --      1.0211                 2.0725                 1.2591
 Frc consts  --      0.0642                 0.2705                 0.2565
 IR Inten    --      0.0000                 3.8659                14.4636

                      4                      5                      6
                     A2                     B1                     B2
 Frequencies --    854.9464               879.0995              1107.5594
 Red. masses --      1.3135                 1.5020                 1.3794
 Frc consts  --      0.5657                 0.6839                 0.9970
 IR Inten    --      0.0000                48.2567                 8.4470

                      7                      8                      9
                     A1                     A1                     B2
 Frequencies --   1172.9796              1276.7453              1298.6970
 Red. masses --      1.8976                 2.3642                 4.7350
 Frc consts  --      1.5383                 2.2706                 4.7053
 IR Inten    --      0.7405                50.0314                 1.7466

                     10                     11                     12
                     B2                     A1                     B2
 Frequencies --   1497.4364              1549.2643              3028.1495
 Red. masses --      1.1140                 1.3121                 1.0554
 Frc consts  --      1.4717                 1.8555                 5.7021
 IR Inten    --      1.1303                 0.0193                 8.9637

                     13                     14                     15
                     A1                     B2                     A1
 Frequencies --   3039.9389              3197.7082              3199.8678
 Red. masses --      1.0601                 1.1060                 1.1079
 Frc consts  --      5.7722                 6.6634                 6.6838
 IR Inten    --     78.4431                 7.8221                15.0629

 - Thermochemistry -
 -------------------
 Temperature   298.150 Kelvin.  Pressure   1.00000 Atm.
 Atom     1 has atomic number  7 and mass  14.00307

 Molecular mass:    42.03437 amu.
 Principal axes and moments of inertia in atomic units:
                           1         2         3
     Eigenvalues --    26.89738 151.94499 178.84237
           X            0.00000   0.00000   1.00000
           Y            1.00000   0.00000  -0.00000
           Z            0.00000   1.00000   0.00000
 This molecule is an asymmetric top.
 Rotational symmetry number  2.
 Rotational temperatures (Kelvin)      3.22016     0.57003     0.48430
 Rotational constants (GHZ):          67.09729    11.87760    10.09124
 Zero-point vibrational energy     140487.0 (Joules/Mol)
                                   33.57719 (Kcal/Mol)
 Warning -- explicit consideration of   3 degrees of freedom as
           vibrations may cause significant error
 Vibrational temperatures:    469.86   677.16   845.96  1230.08  1264.83
          (Kelvin)           1593.53  1687.66  1836.95  1868.54  2154.48
                             2229.05  4356.83  4373.79  4600.79  4603.90

 Zero-point correction=                           0.053509 (Hartree/Particle)
 Thermal correction to Energy=                    0.057340
 Thermal correction to Enthalpy=                  0.058285
 Thermal correction to Gibbs Free Energy=         0.029139
 Sum of electronic and zero-point Energies=           -133.296994
 Sum of electronic and thermal Energies=              -133.293162
 Sum of electronic and thermal Enthalpies=            -133.292218
 Sum of electronic and thermal Free Energies=         -133.321363

                     E (Thermal)             CV                S
                      KCal/Mol        Cal/Mol-Kelvin    Cal/Mol-Kelvin
 Total                   35.982             11.995             61.341
 Electronic               0.000              0.000              1.377
 Translational            0.889              2.981             37.135
 Rotational               0.889              2.981             19.841
 Vibrational             34.204              6.033              2.988
 Vibration     1          0.710              1.622              1.277
 Vibration     2          0.828              1.315              0.736
 Vibration     3          0.945              1.057              0.471

 Optimization completed.
    -- Stationary point found.
 Normal termination of Gaussian 16 at Tue Sep 12 10:26:07 2023.
