 Gaussian 16, Revision B.01,

 ---------------------------------------
 # b3lyp/gen opt freq CPHF(Grid=OneStep)
 ---------------------------------------

 ---------------------------
 formaldoxime, B3LYP/pcseg-2
 ---------------------------
 Symbolic Z-matrix:
 Charge =  0 Multiplicity = 1

 SCF Done:  E(RB3LYP) =  -169.891203056     A.U. after   12 cycles
 Optimization completed.
    -- Stationary point found.
 Normal termination of Gaussian 16 at Sat Sep 30 04:32:06 2023.

 ------------------------------------------------------------------
 #N Geom=AllCheck Guess=TCheck SCRF=Check GenChk RB3LYP/ChkBas Freq
 ------------------------------------------------------------------

 Structure from the checkpoint file:  "ch2noh.chk"
 ---------------------------
 formaldoxime, B3LYP/pcseg-2
 ---------------------------
 Charge =  0 Multiplicity = 1

 SCF Done:  E(RB3LYP) =  -169.891203056     A.U. after    1 cycles

  Exact polarizability:  38.789  -0.831  23.786   0.000  -0.000  16.941
 Approx polarizability:  57.946  -3.143  32.912   0.000  -0.000  22.779

                      1                      2                      3
                     A"                     A'                     A"
 Frequencies --    432.2912               536.4327               800.3441
 Red. masses --      1.1140                 2.4986                 1.1853
 Frc consts  --      0.1227                 0.4236                 0.4473
 IR Inten    --    133.7305                 6.6268                 6.7342

                      4                      5                      6
                     A'                     A"                     A'
 Frequencies --    917.4383               987.1645              1180.4968
 Red. masses --      6.6663                 1.3700                 1.5853
 Frc consts  --      3.3059                 0.7866                 1.3016
 IR Inten    --    131.1683                34.9059                11.5089

                      7                      8                      9
                     A'                     A'                     A'
 Frequencies --   1350.7681              1452.7507              1713.3025
 Red. masses --      1.2255                 1.1396                 5.0209
 Frc consts  --      1.3175                 1.4170                 8.6836
 IR Inten    --     85.1843                14.3106                 5.6284

                     10                     11                     12
                     A'                     A'                     A'
 Frequencies --   3099.4118              3226.7706              3824.2647
 Red. masses --      1.0590                 1.1154                 1.0676
 Frc consts  --      5.9938                 6.8428                 9.1995
 IR Inten    --      6.5648                 3.4670                94.3956

 - Thermochemistry -
 -------------------
 Temperature   298.150 Kelvin.  Pressure   1.00000 Atm.
 Atom     1 has atomic number  6 and mass  12.00000

 Molecular mass:    45.02146 amu.
 Principal axes and moments of inertia in atomic units:
                           1         2         3
     Eigenvalues --    25.73166 152.44435 178.17600
           X            0.98429  -0.17655   0.00000
           Y            0.17655   0.98429   0.00000
           Z           -0.00000   0.00000   1.00000
 This molecule is an asymmetric top.
 Rotational symmetry number  1.
 Rotational temperatures (Kelvin)      3.36605     0.56817     0.48611
 Rotational constants (GHZ):          70.13700    11.83869    10.12898
 Zero-point vibrational energy     116764.1 (Joules/Mol)
                                   27.90729 (Kcal/Mol)
 Warning -- explicit consideration of   2 degrees of freedom as
           vibrations may cause significant error
 Vibrational temperatures:    621.97   771.81  1151.52  1319.99  1420.31
          (Kelvin)           1698.47  1943.45  2090.18  2465.06  4459.36
                             4642.60  5502.26

 Zero-point correction=                           0.044473 (Hartree/Particle)
 Thermal correction to Energy=                    0.047986
 Thermal correction to Enthalpy=                  0.048930
 Thermal correction to Gibbs Free Energy=         0.020204
 Sum of electronic and zero-point Energies=           -169.846730
 Sum of electronic and thermal Energies=              -169.843217
 Sum of electronic and thermal Enthalpies=            -169.842273
 Sum of electronic and thermal Free Energies=         -169.870999

                     E (Thermal)             CV                S
                      KCal/Mol        Cal/Mol-Kelvin    Cal/Mol-Kelvin
 Total                   30.112             10.516             60.459
 Electronic               0.000              0.000              0.000
 Translational            0.889              2.981             37.339
 Rotational               0.889              2.981             21.174
 Vibrational             28.334              4.554              1.946
 Vibration     1          0.793              1.400              0.851
 Vibration     2          0.891              1.169              0.573

 Optimization completed.
    -- Stationary point found.
 Normal termination of Gaussian 16 at Sat Sep 30 04:33:10 2023.
 Gaussian 16:  ES64L-G16RevB.01 20-Dec-2017

 ---------------------------------
 # rohf/gen geom=check guess=check
 ---------------------------------

 ------------------------------
 formaldoxime, ROHF/cc-pVTZ-F12
 ------------------------------
 Structure from the checkpoint file:  "ch2noh.chk"
 Charge =  0 Multiplicity = 1

                         Standard orientation:
 ---------------------------------------------------------------------
 Center     Atomic      Atomic             Coordinates (Angstroms)
 Number     Number       Type             X           Y           Z
 ---------------------------------------------------------------------
      1          6           0        1.138101   -0.019390    0.000000
      2          7           0       -0.000000    0.532288   -0.000000
      3          8           0       -1.033540   -0.410622   -0.000000
      4          1           0        1.995192    0.639157    0.000000
      5          1           0        1.270442   -1.098042    0.000000
      6          1           0       -1.825919    0.134185   -0.000000
 ---------------------------------------------------------------------

 SCF Done:  E(ROHF) =  -168.923805509     A.U. after   12 cycles

 The electronic state is 1-A'.
 Alpha  occ. eigenvalues --  -20.60164 -15.63453 -11.27416  -1.43084  -1.16207
 Alpha  occ. eigenvalues --   -0.82901  -0.72669  -0.65745  -0.59770  -0.59638
 Alpha  occ. eigenvalues --   -0.45106  -0.40884
 Alpha virt. eigenvalues --    0.05807   0.06405   0.06897   0.06998   0.10918
 Alpha virt. eigenvalues --    0.13664   0.13816   0.16568   0.17085   0.18426
 Alpha virt. eigenvalues --    0.19487   0.21741   0.22975   0.25058   0.27829

 Mulliken charges and spin densities:
               1          2
     1  C   -0.002100  -0.000000
     2  N   -0.206572  -0.000000
     3  O   -0.528099  -0.000000
     4  H    0.165661  -0.000000
     5  H    0.136428  -0.000000
     6  H    0.434682  -0.000000
 Sum of Mulliken charges =  -0.00000  -0.00000

 Dipole moment (field-independent basis, Debye):
    X=              0.6451    Y=             -0.1344    Z=              0.0000  Tot=              0.6589
 Quadrupole moment (field-independent basis, Debye-Ang):
   XX=            -11.5170   YY=            -19.5088   ZZ=            -19.2401
   XY=             -1.7281   XZ=              0.0000   YZ=             -0.0000

 Normal termination of Gaussian 16 at Sat Sep 30 04:33:26 2023.
