 Gaussian 16, Revision B.01,

 ---------------------------------------
 # b3lyp/gen opt freq CPHF(Grid=OneStep)
 ---------------------------------------

 --------------------------
 nitromethyl, B3LYP/pcseg-2
 --------------------------
 Symbolic Z-matrix:
 Charge =  0 Multiplicity = 2

 SCF Done:  E(UB3LYP) =  -244.448661622     A.U. after   14 cycles
 Optimization completed.
    -- Stationary point found.
 Normal termination of Gaussian 16 at Sun Oct  1 05:58:24 2023.

 ------------------------------------------------------------------
 #N Geom=AllCheck Guess=TCheck SCRF=Check GenChk UB3LYP/ChkBas Freq
 ------------------------------------------------------------------

 Structure from the checkpoint file:  "ch2no2.chk"
 --------------------------
 nitromethyl, B3LYP/pcseg-2
 --------------------------
 Charge =  0 Multiplicity = 2

 SCF Done:  E(UB3LYP) =  -244.448661622     A.U. after    1 cycles

  Exact polarizability:  17.246   0.000  38.352   0.000   0.000  34.247
 Approx polarizability:  23.625   0.000  74.331   0.000   0.000  45.625

                      1                      2                      3
                     A2                     B2                     B1
 Frequencies --     98.4831               478.2943               595.7355
 Red. masses --      1.0534                 3.0306                 1.4694
 Frc consts  --      0.0060                 0.4085                 0.3073
 IR Inten    --      0.0000                 2.7712                15.6300

                      4                      5                      6
                     A1                     B1                     A1
 Frequencies --    679.6366               726.5694              1009.4370
 Red. masses --      8.3029                 5.0182                 6.9350
 Frc consts  --      2.2596                 1.5608                 4.1635
 IR Inten    --     10.5847                27.5283                 5.4792

                      7                      8                      9
                     B2                     A1                     A1
 Frequencies --   1084.4948              1315.8962              1424.4261
 Red. masses --      1.4562                14.0864                 1.1495
 Frc consts  --      1.0091                14.3712                 1.3742
 IR Inten    --     29.9445               160.8077                 7.1125

                     10                     11                     12
                     B2                     A1                     B2
 Frequencies --   1478.3058              3182.7711              3341.7311
 Red. masses --     10.5194                 1.0431                 1.1309
 Frc consts  --     13.5447                 6.2255                 7.4409
 IR Inten    --    192.3449                 1.2673                 3.6571

 - Thermochemistry -
 -------------------
 Temperature   298.150 Kelvin.  Pressure   1.00000 Atm.
 Atom     1 has atomic number  7 and mass  14.00307

 Molecular mass:    60.00855 amu.
 Principal axes and moments of inertia in atomic units:
                           1         2         3
     Eigenvalues --   143.71708 147.06083 290.77791
           X            0.00000  -0.00000   1.00000
           Y            0.00000   1.00000  -0.00000
           Z            1.00000  -0.00000  -0.00000
 This molecule is an asymmetric top.
 Rotational symmetry number  2.
 Rotational temperatures (Kelvin)      0.60267     0.58897     0.29787
 Rotational constants (GHZ):          12.55760    12.27207     6.20660
 Zero-point vibrational energy      92206.8 (Joules/Mol)
                                   22.03796 (Kcal/Mol)
 Warning -- explicit consideration of   3 degrees of freedom as
           vibrations may cause significant error
 Vibrational temperatures:    141.70   688.16   857.13   977.85  1045.37
          (Kelvin)           1452.35  1560.35  1893.28  2049.43  2126.95
                             4579.30  4808.01

 Zero-point correction=                           0.035120 (Hartree/Particle)
 Thermal correction to Energy=                    0.039401
 Thermal correction to Enthalpy=                  0.040345
 Thermal correction to Gibbs Free Energy=         0.008509
 Sum of electronic and zero-point Energies=           -244.413542
 Sum of electronic and thermal Energies=              -244.409261
 Sum of electronic and thermal Enthalpies=            -244.408316
 Sum of electronic and thermal Free Energies=         -244.440152

                     E (Thermal)             CV                S
                      KCal/Mol        Cal/Mol-Kelvin    Cal/Mol-Kelvin
 Total                   24.724             12.878             67.004
 Electronic               0.000              0.000              1.377
 Translational            0.889              2.981             38.196
 Rotational               0.889              2.981             21.957
 Vibrational             22.947              6.916              5.474
 Vibration     1          0.604              1.950              3.484
 Vibration     2          0.835              1.298              0.715
 Vibration     3          0.954              1.041              0.457

 Optimization completed.
    -- Stationary point found.
 Normal termination of Gaussian 16 at Sun Oct  1 06:00:27 2023.
 Gaussian 16:  ES64L-G16RevB.01 20-Dec-2017

 ---------------------------------
 # rohf/gen geom=check guess=check
 ---------------------------------

 -----------------------------
 nitromethyl, ROHF/cc-pVTZ-F12
 -----------------------------
 Structure from the checkpoint file:  "ch2no2.chk"
 Charge =  0 Multiplicity = 2

                         Standard orientation:
 ---------------------------------------------------------------------
 Center     Atomic      Atomic             Coordinates (Angstroms)
 Number     Number       Type             X           Y           Z
 ---------------------------------------------------------------------
      1          7           0       -0.000000   -0.000000    0.102657
      2          6           0        0.000000    0.000000   -1.305950
      3          8           0       -0.000000    1.095437    0.668769
      4          8           0       -0.000000   -1.095437    0.668769
      5          1           0        0.000000   -0.960008   -1.791605
      6          1           0        0.000000    0.960008   -1.791605
 ---------------------------------------------------------------------

 SCF Done:  E(ROHF) =  -243.135053421     A.U. after   13 cycles

 The electronic state is 2-B1.
 Alpha  occ. eigenvalues --  -20.60930 -20.60925 -15.86332 -11.33342  -1.60860
 Alpha  occ. eigenvalues --   -1.40176  -1.10830  -0.85847  -0.75918  -0.74731
 Alpha  occ. eigenvalues --   -0.71954  -0.65542  -0.51270  -0.50162  -0.45712
 Alpha  occ. eigenvalues --   -0.13601
 Alpha virt. eigenvalues --    0.04099   0.05559   0.05733   0.07434   0.11305
 Alpha virt. eigenvalues --    0.11877   0.12392   0.15665   0.16572   0.17725
 Alpha virt. eigenvalues --    0.19380   0.20515   0.21803   0.22259   0.22807

 Mulliken charges and spin densities:
               1          2
     1  N    0.467562   0.033005
     2  C   -0.050328   0.837032
     3  O   -0.421735   0.045949
     4  O   -0.421735   0.045949
     5  H    0.213119   0.019033
     6  H    0.213119   0.019033
 Sum of Mulliken charges =  -0.00000   1.00000

 Dipole moment (field-independent basis, Debye):
    X=              0.0000    Y=             -0.0000    Z=             -4.2169  Tot=              4.2169
 Quadrupole moment (field-independent basis, Debye-Ang):
   XX=            -22.3608   YY=            -25.6963   ZZ=            -20.4680
   XY=             -0.0000   XZ=              0.0000   YZ=             -0.0000

 Normal termination of Gaussian 16 at Sun Oct  1 06:01:02 2023.
