 Gaussian 16, Revision B.01,
 Gaussian 16:  ES64L-G16RevB.01 20-Dec-2017

 --------------------
 # b3lyp/gen opt freq
 --------------------

 --------------------------
 methanimine, B3LYP/pcseg-2
 --------------------------
 Symbolic Z-matrix:
 Charge =  0 Multiplicity = 1

 SCF Done:  E(RB3LYP) =  -94.6733925512     A.U. after   11 cycles
 SCF Done:  E(RB3LYP) =  -94.6734642202     A.U. after    8 cycles
 SCF Done:  E(RB3LYP) =  -94.6734653109     A.U. after    7 cycles
 Optimization completed.
    -- Stationary point found.
 Normal termination of Gaussian 16 at Wed Jun 15 15:18:31 2022.

 ------------------------------------------------------------------
 #N Geom=AllCheck Guess=TCheck SCRF=Check GenChk RB3LYP/ChkBas Freq
 ------------------------------------------------------------------

 Structure from the checkpoint file:  "/wrk/irikura/Gau-9604.chk"
 --------------------------
 methanimine, B3LYP/pcseg-2
 --------------------------
 Charge =  0 Multiplicity = 1

                         Standard orientation:
 ---------------------------------------------------------------------
 Center     Atomic      Atomic             Coordinates (Angstroms)
 Number     Number       Type             X           Y           Z
 ---------------------------------------------------------------------
      1          6           0        0.055913    0.582836    0.000000
      2          7           0        0.055913   -0.680350    0.000000
      3          1           0       -0.841768    1.207668    0.000000
      4          1           0        1.008845    1.110077    0.000000
      5          1           0       -0.893952   -1.052310    0.000000
 ---------------------------------------------------------------------

 SCF Done:  E(RB3LYP) =  -94.6734653109     A.U. after    1 cycles

 The electronic state is 1-A'.
 Alpha  occ. eigenvalues --  -14.31646 -10.22375  -0.91346  -0.62851  -0.51126
 Alpha  occ. eigenvalues --   -0.43849  -0.34371  -0.27846
 Alpha virt. eigenvalues --   -0.03078   0.01645   0.04336   0.07604   0.13910
 Alpha virt. eigenvalues --    0.17291   0.20904   0.24482   0.27656   0.32736
 Alpha virt. eigenvalues --    0.34351   0.34732   0.38831   0.40316   0.49635

 Mulliken charges:
               1
     1  C    0.082854
     2  N   -0.261362
     3  H    0.018117
     4  H    0.052326
     5  H    0.108065
 Sum of Mulliken charges =  -0.00000

 Dipole moment (field-independent basis, Debye):
    X=             -1.4159    Y=              1.4816    Z=              0.0000  Tot=              2.0493
 Quadrupole moment (field-independent basis, Debye-Ang):
   XX=            -11.8491   YY=            -12.9109   ZZ=            -13.7187
   XY=              2.0899   XZ=              0.0000   YZ=              0.0000

  Exact polarizability:  19.856   0.929  28.504  -0.000   0.000  14.023
 Approx polarizability:  25.243   1.287  42.820  -0.000  -0.000  18.633

                      1                      2                      3
                     A'                     A"                     A"
 Frequencies --   1073.7928              1105.5220              1165.8776
 Red. masses --      1.0712                 1.3650                 1.0718
 Frc consts  --      0.7277                 0.9829                 0.8584
 IR Inten    --     37.0592                15.7926                47.8392

                      4                      5                      6
                     A'                     A'                     A'
 Frequencies --   1368.8066              1493.2641              1710.8537
 Red. masses --      1.4062                 1.1851                 4.4341
 Frc consts  --      1.5524                 1.5569                 7.6468
 IR Inten    --     41.5476                 6.9625                23.5788

                      7                      8                      9
                     A'                     A'                     A'
 Frequencies --   3016.4786              3114.2432              3435.0001
 Red. masses --      1.0598                 1.1095                 1.0754
 Frc consts  --      5.6814                 6.3401                 7.4759
 IR Inten    --     51.9931                32.8112                 0.9413

 - Thermochemistry -
 -------------------
 Temperature   298.150 Kelvin.  Pressure   1.00000 Atm.
 Atom     1 has atomic number  6 and mass  12.00000

 Molecular mass:    29.02655 amu.
 Principal axes and moments of inertia in atomic units:
                           1         2         3
     Eigenvalues --     9.04706  51.44681  60.49386
           X            0.07958   0.99683   0.00000
           Y            0.99683  -0.07958   0.00000
           Z            0.00000  -0.00000   1.00000
 This molecule is an asymmetric top.
 Rotational symmetry number  1.
 Rotational temperatures (Kelvin)      9.57371     1.68356     1.43178
 Rotational constants (GHZ):         199.48378    35.07975    29.83346
 Zero-point vibrational energy     104576.6 (Joules/Mol)
                                   24.99440 (Kcal/Mol)
 Vibrational temperatures:   1544.95  1590.60  1677.44  1969.41  2148.47
          (Kelvin)           2461.54  4340.04  4480.70  4942.20

 Zero-point correction=                           0.039831 (Hartree/Particle)
 Thermal correction to Energy=                    0.042750
 Thermal correction to Enthalpy=                  0.043695
 Thermal correction to Gibbs Free Energy=         0.017929
 Sum of electronic and zero-point Energies=            -94.633634
 Sum of electronic and thermal Energies=               -94.630715
 Sum of electronic and thermal Enthalpies=             -94.629771
 Sum of electronic and thermal Free Energies=          -94.655537

                     E (Thermal)             CV                S
                      KCal/Mol        Cal/Mol-Kelvin    Cal/Mol-Kelvin
 Total                   26.826              6.998             54.229
 Electronic               0.000              0.000              0.000
 Translational            0.889              2.981             36.031
 Rotational               0.889              2.981             17.983
 Vibrational             25.049              1.037              0.215

 Optimization completed.
    -- Stationary point found.
 Normal termination of Gaussian 16 at Wed Jun 15 15:18:51 2022.
