 Gaussian 16, Revision B.01,
 Gaussian 16:  ES64L-G16RevB.01 20-Dec-2017

 -----------------------
 # b3lyp/gen opt=calcall
 -----------------------

 --------------------------
 oxaziridine, B3LYP/pcseg-2
 --------------------------
 Symbolic Z-matrix:
 Charge =  0 Multiplicity = 1

 SCF Done:  E(RB3LYP) =  -169.856166641     A.U. after   12 cycles
 SCF Done:  E(RB3LYP) =  -169.856188110     A.U. after    8 cycles
 Optimization completed.
    -- Stationary point found.

                         Standard orientation:
 ---------------------------------------------------------------------
 Center     Atomic      Atomic             Coordinates (Angstroms)
 Number     Number       Type             X           Y           Z
 ---------------------------------------------------------------------
      1          6           0        0.687713   -0.331642    0.017221
      2          7           0       -0.730096   -0.448687   -0.160634
      3          8           0       -0.036827    0.861899    0.020383
      4          1           0        1.134886   -0.618160    0.965731
      5          1           0        1.289509   -0.526597   -0.864653
      6          1           0       -1.145381   -0.619771    0.756967
 ---------------------------------------------------------------------

 The electronic state is 1-A.
 Alpha  occ. eigenvalues --  -19.17348 -14.38035 -10.26734  -1.12962  -0.79380
 Alpha  occ. eigenvalues --   -0.67282  -0.54975  -0.49270  -0.42482  -0.38050
 Alpha  occ. eigenvalues --   -0.33629  -0.27603
 Alpha virt. eigenvalues --    0.00411   0.02105   0.03664   0.05088   0.07067
 Alpha virt. eigenvalues --    0.12928   0.21652   0.23974   0.25934   0.26993
 Alpha virt. eigenvalues --    0.28301   0.30569   0.31951   0.33323   0.35436

 Mulliken charges:
               1
     1  C    0.295147
     2  N   -0.173827
     3  O   -0.337803
     4  H    0.033987
     5  H    0.047745
     6  H    0.134751
 Sum of Mulliken charges =  -0.00000

 Dipole moment (field-independent basis, Debye):
    X=              1.2156    Y=             -1.7003    Z=              1.4767  Tot=              2.5592
 Quadrupole moment (field-independent basis, Debye-Ang):
   XX=            -16.5378   YY=            -19.3857   ZZ=            -17.4304
   XY=             -0.3170   XZ=             -2.0680   YZ=             -1.1136

  Exact polarizability:  27.077   0.028  23.014  -0.413  -0.505  21.065
 Approx polarizability:  37.462   1.707  37.061  -0.226  -0.290  27.552

                      1                      2                      3
                      A                      A                      A
 Frequencies --    764.2206               894.7833               972.3894
 Red. masses --     11.4753                 7.8750                 1.0708
 Frc consts  --      3.9487                 3.7148                 0.5966
 IR Inten    --      6.5538                34.4464                16.7057

                      4                      5                      6
                      A                      A                      A
 Frequencies --   1091.4380              1218.3149              1255.8858
 Red. masses --      1.0958                 1.2836                 1.3431
 Frc consts  --      0.7691                 1.1225                 1.2481
 IR Inten    --      9.6566                 1.6641                 8.5589

                      7                      8                      9
                      A                      A                      A
 Frequencies --   1271.8391              1357.5811              1541.6299
 Red. masses --      3.4435                 1.2144                 1.1500
 Frc consts  --      3.2818                 1.3187                 1.6103
 IR Inten    --     41.1958                22.8697                 1.9098

                     10                     11                     12
                      A                      A                      A
 Frequencies --   3073.1528              3163.6352              3404.0113
 Red. masses --      1.0489                 1.1212                 1.0771
 Frc consts  --      5.8365                 6.6113                 7.3537
 IR Inten    --     34.1857                22.6992                 1.4859

 - Thermochemistry -
 -------------------
 Temperature   298.150 Kelvin.  Pressure   1.00000 Atm.
 Atom     1 has atomic number  6 and mass  12.00000

 Molecular mass:    45.02146 amu.
 Principal axes and moments of inertia in atomic units:
                           1         2         3
     Eigenvalues --    67.92182  73.51090 123.20394
           X            0.79789  -0.60025  -0.05540
           Y            0.59882   0.79981  -0.04137
           Z            0.06914  -0.00016   0.99761
 This molecule is an asymmetric top.
 Rotational symmetry number  1.
 Rotational temperatures (Kelvin)      1.27520     1.17825     0.70301
 Rotational constants (GHZ):          26.57086    24.55066    14.64840
 Zero-point vibrational energy     119679.7 (Joules/Mol)
                                   28.60413 (Kcal/Mol)
 Vibrational temperatures:   1099.54  1287.39  1399.05  1570.34  1752.88
          (Kelvin)           1806.94  1829.89  1953.26  2218.06  4421.58
                             4551.77  4897.61

 Zero-point correction=                           0.045584 (Hartree/Particle)
 Thermal correction to Energy=                    0.048682
 Thermal correction to Enthalpy=                  0.049626
 Thermal correction to Gibbs Free Energy=         0.021560
 Sum of electronic and zero-point Energies=           -169.810605
 Sum of electronic and thermal Energies=              -169.807506
 Sum of electronic and thermal Enthalpies=            -169.806562
 Sum of electronic and thermal Free Energies=         -169.834628

                     E (Thermal)             CV                S
                      KCal/Mol        Cal/Mol-Kelvin    Cal/Mol-Kelvin
 Total                   30.548              8.590             59.070
 Electronic               0.000              0.000              0.000
 Translational            0.889              2.981             37.339
 Rotational               0.889              2.981             21.047
 Vibrational             28.771              2.628              0.683

 Normal termination of Gaussian 16 at Tue Sep 12 10:36:34 2023.
