 Gaussian 16, Revision B.01,
 Gaussian 16:  ES64L-G16RevB.01 20-Dec-2017

 ---------------------------------------
 # b3lyp/gen opt freq CPHF(Grid=OneStep)
 ---------------------------------------

 --------------------------
 nitromethyl, B3LYP/pcseg-2
 --------------------------
 Symbolic Z-matrix:
 Charge =  0 Multiplicity = 2

 SCF Done:  E(UB3LYP) =  -244.448628749     A.U. after   14 cycles
 SCF Done:  E(UB3LYP) =  -244.448660102     A.U. after    9 cycles
 SCF Done:  E(UB3LYP) =  -244.448661622     A.U. after    9 cycles
 Optimization completed.
    -- Stationary point found.
 Normal termination of Gaussian 16 at Sat Sep 16 00:10:08 2023.

 ------------------------------------------------------------------
 #N Geom=AllCheck Guess=TCheck SCRF=Check GenChk UB3LYP/ChkBas Freq
 ------------------------------------------------------------------

 Structure from the checkpoint file:  "/wrk/irikura/Gau-101086.chk"
 --------------------------
 nitromethyl, B3LYP/pcseg-2
 --------------------------
 Charge =  0 Multiplicity = 2

                         Standard orientation:
 ---------------------------------------------------------------------
 Center     Atomic      Atomic             Coordinates (Angstroms)
 Number     Number       Type             X           Y           Z
 ---------------------------------------------------------------------
      1          7           0        0.000000    0.000000    0.102657
      2          6           0       -0.000000    0.000000   -1.305950
      3          8           0        0.000000    1.095437    0.668769
      4          8           0       -0.000000   -1.095437    0.668769
      5          1           0        0.000000   -0.960008   -1.791605
      6          1           0        0.000000    0.960008   -1.791605
 ---------------------------------------------------------------------

 SCF Done:  E(UB3LYP) =  -244.448661622     A.U. after    1 cycles

 The electronic state is 2-B1.
 Alpha  occ. eigenvalues --  -19.17124 -19.17123 -14.56984 -10.28897  -1.24495
 Alpha  occ. eigenvalues --   -1.07224  -0.85643  -0.64125  -0.56243  -0.56080
 Alpha  occ. eigenvalues --   -0.54951  -0.49182  -0.34271  -0.33541  -0.31387
 Alpha  occ. eigenvalues --   -0.31001
 Alpha virt. eigenvalues --   -0.07405   0.01019   0.04770   0.07162   0.13094
 Alpha virt. eigenvalues --    0.14134   0.18204   0.18383   0.27220   0.27528
 Alpha virt. eigenvalues --    0.30004   0.30670   0.30955   0.32629   0.37504

  Beta  occ. eigenvalues --  -19.16801 -19.16800 -14.57184 -10.27512  -1.24203
  Beta  occ. eigenvalues --   -1.06628  -0.83312  -0.62735  -0.55654  -0.55004
  Beta  occ. eigenvalues --   -0.54358  -0.48601  -0.33028  -0.31936  -0.31080
  Beta virt. eigenvalues --   -0.17491  -0.04920   0.01423   0.04883   0.07492
  Beta virt. eigenvalues --    0.13522   0.17358   0.18493   0.19841   0.27420
  Beta virt. eigenvalues --    0.28628   0.30283   0.31103   0.31171   0.33235

 Mulliken charges and spin densities:
               1          2
     1  N    0.403034  -0.083294
     2  C    0.095826   0.923300
     3  O   -0.354389   0.113985
     4  O   -0.354389   0.113985
     5  H    0.104959  -0.033988
     6  H    0.104959  -0.033988
 Sum of Mulliken charges =   0.00000   1.00000

 Dipole moment (field-independent basis, Debye):
    X=              0.0000    Y=              0.0000    Z=             -3.9725  Tot=              3.9725
 Quadrupole moment (field-independent basis, Debye-Ang):
   XX=            -22.3064   YY=            -25.6443   ZZ=            -20.7953
   XY=             -0.0000   XZ=              0.0000   YZ=              0.0000

  Exact polarizability:  17.246   0.000  38.352   0.000   0.000  34.247
 Approx polarizability:  23.625   0.000  74.331   0.000   0.000  45.625

                      1                      2                      3
                     A2                     B2                     B1
 Frequencies --     98.4719               478.2939               595.7343
 Red. masses --      1.0534                 3.0306                 1.4694
 Frc consts  --      0.0060                 0.4085                 0.3073
 IR Inten    --      0.0000                 2.7712                15.6304

                      4                      5                      6
                     A1                     B1                     A1
 Frequencies --    679.6360               726.5690              1009.4358
 Red. masses --      8.3029                 5.0183                 6.9350
 Frc consts  --      2.2596                 1.5608                 4.1635
 IR Inten    --     10.5846                27.5281                 5.4793

                      7                      8                      9
                     B2                     A1                     A1
 Frequencies --   1084.4940              1315.8948              1424.4257
 Red. masses --      1.4562                14.0865                 1.1495
 Frc consts  --      1.0091                14.3712                 1.3742
 IR Inten    --     29.9446               160.8080                 7.1124

                     10                     11                     12
                     B2                     A1                     B2
 Frequencies --   1478.3042              3182.7732              3341.7333
 Red. masses --     10.5194                 1.0431                 1.1309
 Frc consts  --     13.5447                 6.2255                 7.4409
 IR Inten    --    192.3449                 1.2673                 3.6571

 - Thermochemistry -
 -------------------
 Temperature   298.150 Kelvin.  Pressure   1.00000 Atm.
 Atom     1 has atomic number  7 and mass  14.00307

 Molecular mass:    60.00855 amu.
 Principal axes and moments of inertia in atomic units:
                           1         2         3
     Eigenvalues --   143.71715 147.06089 290.77804
           X            0.00000  -0.00000   1.00000
           Y            0.00000   1.00000  -0.00000
           Z            1.00000  -0.00000  -0.00000
 This molecule is an asymmetric top.
 Rotational symmetry number  2.
 Rotational temperatures (Kelvin)      0.60267     0.58897     0.29787
 Rotational constants (GHZ):          12.55759    12.27207     6.20659
 Zero-point vibrational energy      92206.8 (Joules/Mol)
                                   22.03794 (Kcal/Mol)
 Warning -- explicit consideration of   3 degrees of freedom as
           vibrations may cause significant error
 Vibrational temperatures:    141.68   688.16   857.13   977.84  1045.37
          (Kelvin)           1452.35  1560.34  1893.28  2049.43  2126.95
                             4579.30  4808.01

 Zero-point correction=                           0.035120 (Hartree/Particle)
 Thermal correction to Energy=                    0.039401
 Thermal correction to Enthalpy=                  0.040345
 Thermal correction to Gibbs Free Energy=         0.008509
 Sum of electronic and zero-point Energies=           -244.413542
 Sum of electronic and thermal Energies=              -244.409261
 Sum of electronic and thermal Enthalpies=            -244.408316
 Sum of electronic and thermal Free Energies=         -244.440152

                     E (Thermal)             CV                S
                      KCal/Mol        Cal/Mol-Kelvin    Cal/Mol-Kelvin
 Total                   24.724             12.878             67.004
 Electronic               0.000              0.000              1.377
 Translational            0.889              2.981             38.196
 Rotational               0.889              2.981             21.957
 Vibrational             22.947              6.916              5.474
 Vibration     1          0.604              1.950              3.484
 Vibration     2          0.835              1.298              0.715
 Vibration     3          0.954              1.041              0.457

 Optimization completed.
    -- Stationary point found.
 Normal termination of Gaussian 16 at Sat Sep 16 00:11:04 2023.
