 Gaussian 16, Revision B.01,
 Gaussian 16:  ES64L-G16RevB.01 20-Dec-2017

 --------------------
 # b3lyp/gen opt freq
 --------------------

 --------------------------
 aminomethyl, B3LYP/pcseg-2
 --------------------------
 Symbolic Z-matrix:
 Charge =  0 Multiplicity = 2

 SCF Done:  E(UB3LYP) =  -95.2484813484     A.U. after   14 cycles
 SCF Done:  E(UB3LYP) =  -95.2486884754     A.U. after   11 cycles
 SCF Done:  E(UB3LYP) =  -95.2487513581     A.U. after   11 cycles
 SCF Done:  E(UB3LYP) =  -95.2487526629     A.U. after    8 cycles
 Optimization completed.
    -- Stationary point found.
 Normal termination of Gaussian 16 at Wed Jun 15 16:02:44 2022.

 ------------------------------------------------------------------
 #N Geom=AllCheck Guess=TCheck SCRF=Check GenChk UB3LYP/ChkBas Freq
 ------------------------------------------------------------------

 Structure from the checkpoint file:  "/wrk/irikura/Gau-19427.chk"
 --------------------------
 aminomethyl, B3LYP/pcseg-2
 --------------------------
 Charge =  0 Multiplicity = 2

                         Standard orientation:
 ---------------------------------------------------------------------
 Center     Atomic      Atomic             Coordinates (Angstroms)
 Number     Number       Type             X           Y           Z
 ---------------------------------------------------------------------
      1          6           0        0.012320    0.730973    0.000000
      2          7           0        0.012320   -0.660073   -0.000000
      3          1           0        0.259261    1.220135    0.929424
      4          1           0        0.259261    1.220135   -0.929424
      5          1           0       -0.339344   -1.102800   -0.833944
      6          1           0       -0.339344   -1.102800    0.833944
 ---------------------------------------------------------------------

 SCF Done:  E(UB3LYP) =  -95.2487526629     A.U. after    1 cycles

 The electronic state is 2-A'.
 Alpha  occ. eigenvalues --  -14.32720 -10.18157  -0.90699  -0.64943  -0.52788
 Alpha  occ. eigenvalues --   -0.45654  -0.38856  -0.35083  -0.15254
 Alpha virt. eigenvalues --    0.01052   0.04812   0.05073   0.10658   0.14537
 Alpha virt. eigenvalues --    0.17863   0.24148   0.24721   0.26857   0.26996
 Alpha virt. eigenvalues --    0.30879   0.32598   0.34843   0.35938   0.42292

  Beta  occ. eigenvalues --  -14.32197 -10.16927  -0.89452  -0.62491  -0.52325
  Beta  occ. eigenvalues --   -0.44778  -0.38132  -0.30522
  Beta virt. eigenvalues --   -0.02223   0.01210   0.05127   0.05163   0.10749
  Beta virt. eigenvalues --    0.14804   0.19992   0.24545   0.26310   0.27097
  Beta virt. eigenvalues --    0.27815   0.32173   0.33633   0.35917   0.36318

 Mulliken charges and spin densities:
               1          2
     1  C   -0.080280   0.887617
     2  N   -0.270840   0.162057
     3  H    0.041011  -0.024283
     4  H    0.041011  -0.024283
     5  H    0.134550  -0.000554
     6  H    0.134550  -0.000554
 Sum of Mulliken charges =  -0.00000   1.00000

 Dipole moment (field-independent basis, Debye):
    X=             -0.5613    Y=             -1.0638    Z=              0.0000  Tot=              1.2028
 Quadrupole moment (field-independent basis, Debye-Ang):
   XX=            -16.0765   YY=            -12.8794   ZZ=            -11.3229
   XY=              2.1428   XZ=             -0.0000   YZ=              0.0000

  Exact polarizability:  20.189   0.251  28.568   0.000  -0.000  21.629
 Approx polarizability:  24.768   0.091  34.309  -0.000   0.000  28.208

                      1                      2                      3
                     A"                     A'                     A'
 Frequencies --    441.6083               580.6146               657.1676
 Red. masses --      1.0223                 1.2190                 1.3451
 Frc consts  --      0.1175                 0.2421                 0.3423
 IR Inten    --     30.6359               147.4589               155.9829

                      4                      5                      6
                     A"                     A'                     A"
 Frequencies --    934.5954              1223.0886              1320.8639
 Red. masses --      1.0307                 3.4110                 1.3679
 Frc consts  --      0.5304                 3.0064                 1.4061
 IR Inten    --      0.0116                28.7863                 3.0111

                      7                      8                      9
                     A'                     A'                     A'
 Frequencies --   1480.6068              1651.4354              3152.4821
 Red. masses --      1.1857                 1.1287                 1.0488
 Frc consts  --      1.5314                 1.8137                 6.1409
 IR Inten    --      2.4979                34.1947                14.1065

                     10                     11                     12
                     A"                     A'                     A"
 Frequencies --   3262.8199              3544.7189              3646.1078
 Red. masses --      1.1219                 1.0468                 1.0990
 Frc consts  --      7.0371                 7.7496                 8.6077
 IR Inten    --     12.7226                 6.9871                15.5085

 - Thermochemistry -
 -------------------
 Temperature   298.150 Kelvin.  Pressure   1.00000 Atm.
 Atom     1 has atomic number  6 and mass  12.00000

 Molecular mass:    30.03437 amu.
 Principal axes and moments of inertia in atomic units:
                           1         2         3
     Eigenvalues --    12.15929  65.47171  75.76002
           X            0.07814   0.00000   0.99694
           Y            0.99694   0.00000  -0.07814
           Z            0.00000   1.00000   0.00000
 This molecule is an asymmetric top.
 Rotational symmetry number  1.
 Rotational temperatures (Kelvin)      7.12327     1.32292     1.14327
 Rotational constants (GHZ):         148.42486    27.56521    23.82181
 Zero-point vibrational energy     130967.8 (Joules/Mol)
                                   31.30206 (Kcal/Mol)
 Warning -- explicit consideration of   2 degrees of freedom as
           vibrations may cause significant error
 Vibrational temperatures:    635.38   835.37   945.52  1344.67  1759.75
          (Kelvin)           1900.43  2130.26  2376.05  4535.72  4694.47
                             5100.06  5245.94

 Zero-point correction=                           0.049883 (Hartree/Particle)
 Thermal correction to Energy=                    0.053369
 Thermal correction to Enthalpy=                  0.054314
 Thermal correction to Gibbs Free Energy=         0.026699
 Sum of electronic and zero-point Energies=            -95.198870
 Sum of electronic and thermal Energies=               -95.195383
 Sum of electronic and thermal Enthalpies=             -95.194439
 Sum of electronic and thermal Free Energies=          -95.222054

                     E (Thermal)             CV                S
                      KCal/Mol        Cal/Mol-Kelvin    Cal/Mol-Kelvin
 Total                   33.490             10.235             58.120
 Electronic               0.000              0.000              1.377
 Translational            0.889              2.981             36.133
 Rotational               0.889              2.981             18.740
 Vibrational             31.712              4.273              1.870
 Vibration     1          0.801              1.379              0.822
 Vibration     2          0.937              1.073              0.484

 Optimization completed.
    -- Stationary point found.
 Normal termination of Gaussian 16 at Wed Jun 15 16:03:05 2022.
