 Gaussian 16, Revision B.01,

 ---------------------------------------
 # b3lyp/gen opt freq CPHF(Grid=OneStep)
 ---------------------------------------

 --------------------------
 aminomethyl, B3LYP/pcseg-2
 --------------------------
 Symbolic Z-matrix:
 Charge =  0 Multiplicity = 2

 SCF Done:  E(UB3LYP) =  -95.2487526630     A.U. after   14 cycles
 Optimization completed.
    -- Stationary point found.
 Normal termination of Gaussian 16 at Sat Sep 30 10:57:10 2023.

 ------------------------------------------------------------------
 #N Geom=AllCheck Guess=TCheck SCRF=Check GenChk UB3LYP/ChkBas Freq
 ------------------------------------------------------------------

 Structure from the checkpoint file:  "ch2nh2.chk"
 --------------------------
 aminomethyl, B3LYP/pcseg-2
 --------------------------
 Charge =  0 Multiplicity = 2

 SCF Done:  E(UB3LYP) =  -95.2487526630     A.U. after    1 cycles

  Exact polarizability:  20.188   0.251  28.568   0.000  -0.000  21.629
 Approx polarizability:  24.768   0.091  34.309   0.000  -0.000  28.208

                      1                      2                      3
                     A"                     A'                     A'
 Frequencies --    441.6115               580.6241               657.1678
 Red. masses --      1.0223                 1.2190                 1.3451
 Frc consts  --      0.1175                 0.2421                 0.3423
 IR Inten    --     30.6362               147.4732               155.9642

                      4                      5                      6
                     A"                     A'                     A"
 Frequencies --    934.5973              1223.0921              1320.8648
 Red. masses --      1.0307                 3.4110                 1.3679
 Frc consts  --      0.5304                 3.0064                 1.4061
 IR Inten    --      0.0116                28.7840                 3.0110

                      7                      8                      9
                     A'                     A'                     A'
 Frequencies --   1480.6085              1651.4350              3152.4774
 Red. masses --      1.1857                 1.1287                 1.0488
 Frc consts  --      1.5314                 1.8137                 6.1409
 IR Inten    --      2.4978                34.1934                14.1070

                     10                     11                     12
                     A"                     A'                     A"
 Frequencies --   3262.8139              3544.7193              3646.1081
 Red. masses --      1.1219                 1.0468                 1.0990
 Frc consts  --      7.0370                 7.7496                 8.6077
 IR Inten    --     12.7234                 6.9879                15.5088

 - Thermochemistry -
 -------------------
 Temperature   298.150 Kelvin.  Pressure   1.00000 Atm.
 Atom     1 has atomic number  6 and mass  12.00000

 Molecular mass:    30.03437 amu.
 Principal axes and moments of inertia in atomic units:
                           1         2         3
     Eigenvalues --    12.15930  65.47168  75.76000
           X            0.07814  -0.00000   0.99694
           Y            0.99694   0.00000  -0.07814
           Z           -0.00000   1.00000   0.00000
 This molecule is an asymmetric top.
 Rotational symmetry number  1.
 Rotational temperatures (Kelvin)      7.12327     1.32292     1.14327
 Rotational constants (GHZ):         148.42479    27.56522    23.82182
 Zero-point vibrational energy     130967.9 (Joules/Mol)
                                   31.30207 (Kcal/Mol)
 Warning -- explicit consideration of   2 degrees of freedom as
           vibrations may cause significant error
 Vibrational temperatures:    635.38   835.39   945.52  1344.68  1759.76
          (Kelvin)           1900.43  2130.27  2376.05  4535.71  4694.46
                             5100.06  5245.94

 Zero-point correction=                           0.049883 (Hartree/Particle)
 Thermal correction to Energy=                    0.053370
 Thermal correction to Enthalpy=                  0.054314
 Thermal correction to Gibbs Free Energy=         0.026699
 Sum of electronic and zero-point Energies=            -95.198870
 Sum of electronic and thermal Energies=               -95.195383
 Sum of electronic and thermal Enthalpies=             -95.194439
 Sum of electronic and thermal Free Energies=          -95.222054

                     E (Thermal)             CV                S
                      KCal/Mol        Cal/Mol-Kelvin    Cal/Mol-Kelvin
 Total                   33.490             10.235             58.120
 Electronic               0.000              0.000              1.377
 Translational            0.889              2.981             36.133
 Rotational               0.889              2.981             18.740
 Vibrational             31.712              4.273              1.870
 Vibration     1          0.801              1.379              0.822
 Vibration     2          0.937              1.073              0.484

 Optimization completed.
    -- Stationary point found.
 Normal termination of Gaussian 16 at Sat Sep 30 10:58:30 2023.
 Gaussian 16:  ES64L-G16RevB.01 20-Dec-2017

 ---------------------------------
 # rohf/gen geom=check guess=check
 ---------------------------------

 -----------------------------
 aminomethyl, ROHF/cc-pVTZ-F12
 -----------------------------
 Structure from the checkpoint file:  "ch2nh2.chk"
 Charge =  0 Multiplicity = 2

                         Standard orientation:
 ---------------------------------------------------------------------
 Center     Atomic      Atomic             Coordinates (Angstroms)
 Number     Number       Type             X           Y           Z
 ---------------------------------------------------------------------
      1          6           0        0.012320    0.730973   -0.000000
      2          7           0        0.012320   -0.660073    0.000000
      3          1           0        0.259261    1.220135    0.929424
      4          1           0        0.259261    1.220135   -0.929424
      5          1           0       -0.339344   -1.102800   -0.833944
      6          1           0       -0.339344   -1.102800    0.833944
 ---------------------------------------------------------------------

 SCF Done:  E(ROHF) =  -94.6332878703     A.U. after   14 cycles

 The electronic state is 2-A'.
 Alpha  occ. eigenvalues --  -15.55488 -11.23057  -1.18632  -0.85001  -0.69163
 Alpha  occ. eigenvalues --   -0.60609  -0.53421  -0.45607  -0.03723
 Alpha virt. eigenvalues --    0.05603   0.07123   0.07325   0.08774   0.12397
 Alpha virt. eigenvalues --    0.12540   0.14553   0.21013   0.22221   0.23859
 Alpha virt. eigenvalues --    0.24424   0.26867   0.33181   0.37684   0.42983

 Mulliken charges and spin densities:
               1          2
     1  C   -0.109053   0.871559
     2  N   -0.597061   0.080290
     3  H    0.107901   0.019968
     4  H    0.107901   0.019968
     5  H    0.245156   0.004107
     6  H    0.245156   0.004107
 Sum of Mulliken charges =  -0.00000   1.00000

 Dipole moment (field-independent basis, Debye):
    X=             -0.6387    Y=             -0.6008    Z=              0.0000  Tot=              0.8769
 Quadrupole moment (field-independent basis, Debye-Ang):
   XX=            -15.8380   YY=            -12.8515   ZZ=            -11.1471
   XY=              2.1950   XZ=              0.0000   YZ=              0.0000

 Normal termination of Gaussian 16 at Sat Sep 30 10:58:38 2023.
