 Gaussian 16, Revision B.01,

 ---------------------------------------
 # b3lyp/gen opt freq CPHF(Grid=OneStep)
 ---------------------------------------

 --------------------------
 oxaziridine, B3LYP/pcseg-2
 --------------------------
 Symbolic Z-matrix:
 Charge =  0 Multiplicity = 1

 SCF Done:  E(RB3LYP) =  -169.856188110     A.U. after   12 cycles
 Optimization completed.
    -- Stationary point found.
 Normal termination of Gaussian 16 at Fri Sep 29 00:20:28 2023.

 ------------------------------------------------------------------
 #N Geom=AllCheck Guess=TCheck SCRF=Check GenChk RB3LYP/ChkBas Freq
 ------------------------------------------------------------------

 Structure from the checkpoint file:  "ch2nho.chk"
 --------------------------
 oxaziridine, B3LYP/pcseg-2
 --------------------------
 Charge =  0 Multiplicity = 1

 SCF Done:  E(RB3LYP) =  -169.856188110     A.U. after    1 cycles

  Exact polarizability:  27.077   0.028  23.014  -0.413  -0.505  21.065
 Approx polarizability:  37.462   1.707  37.061  -0.226  -0.290  27.552

                      1                      2                      3
                      A                      A                      A
 Frequencies --    764.2196               894.7808               972.3902
 Red. masses --     11.4752                 7.8750                 1.0708
 Frc consts  --      3.9486                 3.7148                 0.5966
 IR Inten    --      6.5538                34.4448                16.7052

                      4                      5                      6
                      A                      A                      A
 Frequencies --   1091.4387              1218.3157              1255.8865
 Red. masses --      1.0958                 1.2836                 1.3431
 Frc consts  --      0.7691                 1.1225                 1.2481
 IR Inten    --      9.6562                 1.6643                 8.5576

                      7                      8                      9
                      A                      A                      A
 Frequencies --   1271.8387              1357.5828              1541.6299
 Red. masses --      3.4432                 1.2144                 1.1500
 Frc consts  --      3.2815                 1.3187                 1.6103
 IR Inten    --     41.1968                22.8695                 1.9099

                     10                     11                     12
                      A                      A                      A
 Frequencies --   3073.1530              3163.6336              3404.0035
 Red. masses --      1.0489                 1.1212                 1.0771
 Frc consts  --      5.8365                 6.6113                 7.3537
 IR Inten    --     34.1843                22.7011                 1.4861

 - Thermochemistry -
 -------------------
 Temperature   298.150 Kelvin.  Pressure   1.00000 Atm.
 Atom     1 has atomic number  6 and mass  12.00000

 Molecular mass:    45.02146 amu.
 Principal axes and moments of inertia in atomic units:
                           1         2         3
     Eigenvalues --    67.92184  73.51089 123.20393
           X            0.79789  -0.60025  -0.05540
           Y            0.59882   0.79982  -0.04137
           Z            0.06914  -0.00016   0.99761
 This molecule is an asymmetric top.
 Rotational symmetry number  1.
 Rotational temperatures (Kelvin)      1.27520     1.17825     0.70301
 Rotational constants (GHZ):          26.57085    24.55066    14.64841
 Zero-point vibrational energy     119679.6 (Joules/Mol)
                                   28.60412 (Kcal/Mol)
 Vibrational temperatures:   1099.54  1287.39  1399.05  1570.34  1752.88
          (Kelvin)           1806.94  1829.89  1953.26  2218.06  4421.58
                             4551.76  4897.60

 Zero-point correction=                           0.045584 (Hartree/Particle)
 Thermal correction to Energy=                    0.048682
 Thermal correction to Enthalpy=                  0.049626
 Thermal correction to Gibbs Free Energy=         0.021560
 Sum of electronic and zero-point Energies=           -169.810605
 Sum of electronic and thermal Energies=              -169.807506
 Sum of electronic and thermal Enthalpies=            -169.806562
 Sum of electronic and thermal Free Energies=         -169.834628

                     E (Thermal)             CV                S
                      KCal/Mol        Cal/Mol-Kelvin    Cal/Mol-Kelvin
 Total                   30.548              8.590             59.070
 Electronic               0.000              0.000              0.000
 Translational            0.889              2.981             37.339
 Rotational               0.889              2.981             21.047
 Vibrational             28.771              2.628              0.683

 Optimization completed.
    -- Stationary point found.
 Normal termination of Gaussian 16 at Fri Sep 29 00:21:58 2023.
 Gaussian 16:  ES64L-G16RevB.01 20-Dec-2017

 ---------------------------------
 # rohf/gen geom=check guess=check
 ---------------------------------

 -----------------------------
 oxaziridine, ROHF/cc-pVTZ-F12
 -----------------------------
 Structure from the checkpoint file:  "ch2nho.chk"
 Charge =  0 Multiplicity = 1

                         Standard orientation:
 ---------------------------------------------------------------------
 Center     Atomic      Atomic             Coordinates (Angstroms)
 Number     Number       Type             X           Y           Z
 ---------------------------------------------------------------------
      1          6           0        0.687713   -0.331641    0.017221
      2          7           0       -0.730095   -0.448688   -0.160634
      3          8           0       -0.036829    0.861899    0.020383
      4          1           0        1.134887   -0.618158    0.965731
      5          1           0        1.289510   -0.526595   -0.864653
      6          1           0       -1.145380   -0.619773    0.756967
 ---------------------------------------------------------------------

 SCF Done:  E(ROHF) =  -168.888643699     A.U. after   12 cycles

 The electronic state is 1-A.
 Alpha  occ. eigenvalues --  -20.60605 -15.63251 -11.32876  -1.46446  -1.06824
 Alpha  occ. eigenvalues --   -0.90644  -0.73784  -0.66927  -0.57209  -0.51352
 Alpha  occ. eigenvalues --   -0.49985  -0.44661
 Alpha virt. eigenvalues --    0.05069   0.05805   0.06365   0.07164   0.11924
 Alpha virt. eigenvalues --    0.12699   0.13600   0.16372   0.18334   0.20253
 Alpha virt. eigenvalues --    0.22398   0.23518   0.24187   0.24345   0.27154

 Mulliken charges and spin densities:
               1          2
     1  C    0.257493   0.000000
     2  N   -0.325482   0.000000
     3  O   -0.386882   0.000000
     4  H    0.104569   0.000000
     5  H    0.127111   0.000000
     6  H    0.223192   0.000000
 Sum of Mulliken charges =  -0.00000   0.00000

 Dipole moment (field-independent basis, Debye):
    X=              1.3536    Y=             -1.9276    Z=              1.5078  Tot=              2.7967
 Quadrupole moment (field-independent basis, Debye-Ang):
   XX=            -16.2088   YY=            -19.4394   ZZ=            -17.1321
   XY=             -0.3514   XZ=             -2.1053   YZ=             -1.1800

 Normal termination of Gaussian 16 at Fri Sep 29 00:22:30 2023.
