 Gaussian 16, Revision B.01,
 Gaussian 16:  ES64L-G16RevB.01 20-Dec-2017

 --------------------
 # b3lyp/gen opt freq
 --------------------

 ----------------------------
 nitrosomethyl, B3LYP/pcseg-2
 ----------------------------
 Symbolic Z-matrix:
 Charge =  0 Multiplicity = 2

 SCF Done:  E(UB3LYP) =  -169.254106186     A.U. after   18 cycles
 SCF Done:  E(UB3LYP) =  -169.254133944     A.U. after   11 cycles
 Optimization completed.
    -- Stationary point found.
 Normal termination of Gaussian 16 at Fri Jun 17 17:47:25 2022.

 ------------------------------------------------------------------
 #N Geom=AllCheck Guess=TCheck SCRF=Check GenChk UB3LYP/ChkBas Freq
 ------------------------------------------------------------------

 Structure from the checkpoint file:  "/wrk/irikura/Gau-8879.chk"
 ----------------------------
 nitrosomethyl, B3LYP/pcseg-2
 ----------------------------
 Charge =  0 Multiplicity = 2

                         Standard orientation:
 ---------------------------------------------------------------------
 Center     Atomic      Atomic             Coordinates (Angstroms)
 Number     Number       Type             X           Y           Z
 ---------------------------------------------------------------------
      1          7           0        0.000000    0.349661    0.000000
      2          6           0        1.077428   -0.330785    0.000000
      3          8           0       -1.190139    0.092921    0.000000
      4          1           0        1.046564   -1.415045    0.000000
      5          1           0        2.009977    0.208759    0.000000
 ---------------------------------------------------------------------

 SCF Done:  E(UB3LYP) =  -169.254133944     A.U. after    1 cycles

 The electronic state is 2-A'.
 Alpha  occ. eigenvalues --  -19.20471 -14.45127 -10.23136  -1.18041  -0.88457
 Alpha  occ. eigenvalues --   -0.61776  -0.54263  -0.53608  -0.48997  -0.42749
 Alpha  occ. eigenvalues --   -0.28242  -0.27383
 Alpha virt. eigenvalues --   -0.03527   0.02384   0.06057   0.09098   0.14849
 Alpha virt. eigenvalues --    0.17076   0.20525   0.24435   0.30249   0.31313
 Alpha virt. eigenvalues --    0.31744   0.32571   0.39046   0.40433   0.41147

  Beta  occ. eigenvalues --  -19.18823 -14.43980 -10.23104  -1.15379  -0.86321
  Beta  occ. eigenvalues --   -0.59938  -0.52011  -0.50541  -0.47544  -0.38397
  Beta  occ. eigenvalues --   -0.27349
  Beta virt. eigenvalues --   -0.12179  -0.02556   0.02596   0.06291   0.09384
  Beta virt. eigenvalues --    0.15500   0.16943   0.20889   0.25053   0.30685
  Beta virt. eigenvalues --    0.31757   0.32077   0.32869   0.40156   0.41665

 Mulliken charges and spin densities:
               1          2
     1  N    0.112002   0.453135
     2  C    0.012802  -0.064627
     3  O   -0.254550   0.548791
     4  H    0.061908   0.055972
     5  H    0.067837   0.006729
 Sum of Mulliken charges =   0.00000   1.00000

 Dipole moment (field-independent basis, Debye):
    X=              2.1568    Y=             -0.7239    Z=              0.0000  Tot=              2.2750
 Quadrupole moment (field-independent basis, Debye-Ang):
   XX=            -17.1966   YY=            -16.3921   ZZ=            -18.2161
   XY=             -0.1492   XZ=             -0.0000   YZ=              0.0000

  Exact polarizability:  39.893  -4.099  21.080   0.000   0.000  15.533
 Approx polarizability:  71.335  -9.230  29.603   0.000   0.000  20.396

                      1                      2                      3
                     A'                     A"                     A"
 Frequencies --    460.6759               693.5158               831.3870
 Red. masses --      3.5435                 1.6202                 1.2938
 Frc consts  --      0.4431                 0.4591                 0.5269
 IR Inten    --      2.7762                 0.1596                62.7534

                      4                      5                      6
                     A'                     A'                     A'
 Frequencies --   1131.4577              1246.4787              1491.2649
 Red. masses --      1.4831                 3.3572                 1.2985
 Frc consts  --      1.1186                 3.0732                 1.7013
 IR Inten    --     23.0040                38.6795                 0.4660

                      7                      8                      9
                     A'                     A'                     A'
 Frequencies --   1716.8765              3113.9455              3259.0917
 Red. masses --     12.1214                 1.0545                 1.1154
 Frc consts  --     21.0513                 6.0245                 6.9803
 IR Inten    --    200.4334                 2.0411                 0.6505

 - Thermochemistry -
 -------------------
 Temperature   298.150 Kelvin.  Pressure   1.00000 Atm.
 Atom     1 has atomic number  7 and mass  14.00307

 Molecular mass:    44.01364 amu.
 Principal axes and moments of inertia in atomic units:
                           1         2         3
     Eigenvalues --    13.85447 153.07786 166.93233
           X            0.98302   0.18351   0.00000
           Y           -0.18351   0.98302   0.00000
           Z           -0.00000   0.00000   1.00000
 This molecule is an asymmetric top.
 Rotational symmetry number  1.
 Rotational temperatures (Kelvin)      6.25170     0.56582     0.51886
 Rotational constants (GHZ):         130.26421    11.78969    10.81121
 Zero-point vibrational energy      83407.8 (Joules/Mol)
                                   19.93494 (Kcal/Mol)
 Warning -- explicit consideration of   1 degrees of freedom as
           vibrations may cause significant error
 Vibrational temperatures:    662.81   997.81  1196.18  1627.92  1793.40
          (Kelvin)           2145.60  2470.20  4480.27  4689.11

 Zero-point correction=                           0.031768 (Hartree/Particle)
 Thermal correction to Energy=                    0.035084
 Thermal correction to Enthalpy=                  0.036028
 Thermal correction to Gibbs Free Energy=         0.007276
 Sum of electronic and zero-point Energies=           -169.222366
 Sum of electronic and thermal Energies=              -169.219050
 Sum of electronic and thermal Enthalpies=            -169.218106
 Sum of electronic and thermal Free Energies=         -169.246858

                     E (Thermal)             CV                S
                      KCal/Mol        Cal/Mol-Kelvin    Cal/Mol-Kelvin
 Total                   22.015              9.283             60.515
 Electronic               0.000              0.000              1.377
 Translational            0.889              2.981             37.272
 Rotational               0.889              2.981             20.498
 Vibrational             20.238              3.322              1.367
 Vibration     1          0.818              1.337              0.764

 Optimization completed.
    -- Stationary point found.
 Normal termination of Gaussian 16 at Fri Jun 17 17:47:47 2022.
