 Gaussian 16, Revision B.01,

 ---------------------------------------
 # b3lyp/gen opt freq CPHF(Grid=OneStep)
 ---------------------------------------

 ----------------------------
 nitrosomethyl, B3LYP/pcseg-2
 ----------------------------
 Symbolic Z-matrix:
 Charge =  0 Multiplicity = 2

 SCF Done:  E(UB3LYP) =  -169.254133944     A.U. after   18 cycles
 Optimization completed.
    -- Stationary point found.
 Normal termination of Gaussian 16 at Sat Sep 30 20:53:40 2023.

 ------------------------------------------------------------------
 #N Geom=AllCheck Guess=TCheck SCRF=Check GenChk UB3LYP/ChkBas Freq
 ------------------------------------------------------------------

 Structure from the checkpoint file:  "ch2no.chk"
 ----------------------------
 nitrosomethyl, B3LYP/pcseg-2
 ----------------------------
 Charge =  0 Multiplicity = 2

 SCF Done:  E(UB3LYP) =  -169.254133944     A.U. after    1 cycles

  Exact polarizability:  39.893  -4.100  21.080   0.000  -0.000  15.532
 Approx polarizability:  71.335  -9.230  29.603   0.000  -0.000  20.396

                      1                      2                      3
                     A'                     A"                     A"
 Frequencies --    460.6766               693.5145               831.3863
 Red. masses --      3.5435                 1.6202                 1.2938
 Frc consts  --      0.4431                 0.4591                 0.5269
 IR Inten    --      2.7759                 0.1596                62.7541

                      4                      5                      6
                     A'                     A'                     A'
 Frequencies --   1131.4580              1246.4800              1491.2658
 Red. masses --      1.4831                 3.3572                 1.2985
 Frc consts  --      1.1186                 3.0732                 1.7013
 IR Inten    --     23.0041                38.6793                 0.4659

                      7                      8                      9
                     A'                     A'                     A'
 Frequencies --   1716.8698              3113.9466              3259.0936
 Red. masses --     12.1214                 1.0545                 1.1154
 Frc consts  --     21.0512                 6.0245                 6.9803
 IR Inten    --    200.4376                 2.0413                 0.6505

 - Thermochemistry -
 -------------------
 Temperature   298.150 Kelvin.  Pressure   1.00000 Atm.
 Atom     1 has atomic number  7 and mass  14.00307

 Molecular mass:    44.01364 amu.
 Principal axes and moments of inertia in atomic units:
                           1         2         3
     Eigenvalues --    13.85445 153.07790 166.93235
           X            0.98302   0.18351   0.00000
           Y           -0.18351   0.98302   0.00000
           Z           -0.00000   0.00000   1.00000
 This molecule is an asymmetric top.
 Rotational symmetry number  1.
 Rotational temperatures (Kelvin)      6.25170     0.56582     0.51886
 Rotational constants (GHZ):         130.26436    11.78969    10.81121
 Zero-point vibrational energy      83407.8 (Joules/Mol)
                                   19.93494 (Kcal/Mol)
 Warning -- explicit consideration of   1 degrees of freedom as
           vibrations may cause significant error
 Vibrational temperatures:    662.81   997.81  1196.18  1627.92  1793.41
          (Kelvin)           2145.60  2470.19  4480.27  4689.11

 Zero-point correction=                           0.031768 (Hartree/Particle)
 Thermal correction to Energy=                    0.035084
 Thermal correction to Enthalpy=                  0.036028
 Thermal correction to Gibbs Free Energy=         0.007276
 Sum of electronic and zero-point Energies=           -169.222366
 Sum of electronic and thermal Energies=              -169.219050
 Sum of electronic and thermal Enthalpies=            -169.218106
 Sum of electronic and thermal Free Energies=         -169.246858

                     E (Thermal)             CV                S
                      KCal/Mol        Cal/Mol-Kelvin    Cal/Mol-Kelvin
 Total                   22.015              9.283             60.515
 Electronic               0.000              0.000              1.377
 Translational            0.889              2.981             37.272
 Rotational               0.889              2.981             20.498
 Vibrational             20.238              3.322              1.367
 Vibration     1          0.819              1.337              0.764

 Optimization completed.
    -- Stationary point found.
 Normal termination of Gaussian 16 at Sat Sep 30 20:54:59 2023.
 Gaussian 16:  ES64L-G16RevB.01 20-Dec-2017

 ---------------------------------
 # rohf/gen geom=check guess=check
 ---------------------------------

 -------------------------------
 nitrosomethyl, ROHF/cc-pVTZ-F12
 -------------------------------
 Structure from the checkpoint file:  "ch2no.chk"
 Charge =  0 Multiplicity = 2

                         Standard orientation:
 ---------------------------------------------------------------------
 Center     Atomic      Atomic             Coordinates (Angstroms)
 Number     Number       Type             X           Y           Z
 ---------------------------------------------------------------------
      1          7           0        0.000000    0.349661   -0.000000
      2          6           0        1.077428   -0.330785   -0.000000
      3          8           0       -1.190139    0.092921    0.000000
      4          1           0        1.046565   -1.415045   -0.000000
      5          1           0        2.009977    0.208760   -0.000000
 ---------------------------------------------------------------------

 SCF Done:  E(ROHF) =  -168.301356025     A.U. after   19 cycles

 The electronic state is 2-A'.
 Alpha  occ. eigenvalues --  -20.64410 -15.68337 -11.29149  -1.50567  -1.14406
 Alpha  occ. eigenvalues --   -0.82354  -0.71171  -0.68305  -0.66163  -0.53254
 Alpha  occ. eigenvalues --   -0.39782  -0.12221
 Alpha virt. eigenvalues --    0.05392   0.06165   0.06451   0.07261   0.11615
 Alpha virt. eigenvalues --    0.14337   0.14378   0.16264   0.17567   0.19118
 Alpha virt. eigenvalues --    0.20731   0.21246   0.22772   0.25367   0.30605

 Mulliken charges and spin densities:
               1          2
     1  N   -0.011838   0.264756
     2  C   -0.078545   0.022556
     3  O   -0.207705   0.698497
     4  H    0.129893   0.013648
     5  H    0.168195   0.000543
 Sum of Mulliken charges =  -0.00000   1.00000

 Dipole moment (field-independent basis, Debye):
    X=              2.0740    Y=             -1.0485    Z=             -0.0000  Tot=              2.3239
 Quadrupole moment (field-independent basis, Debye-Ang):
   XX=            -16.4628   YY=            -16.4796   ZZ=            -18.2543
   XY=             -0.3109   XZ=             -0.0000   YZ=             -0.0000

 Normal termination of Gaussian 16 at Sat Sep 30 20:55:14 2023.
