 Gaussian 16, Revision B.01,
 Gaussian 16:  ES64L-G16RevB.01 20-Dec-2017

 --------------------
 # b3lyp/gen opt freq
 --------------------

 ---------------------------
 formaldoxime, B3LYP/pcseg-2
 ---------------------------
 Symbolic Z-matrix:
 Charge =  0 Multiplicity = 1

 SCF Done:  E(RB3LYP) =  -169.891120678     A.U. after   12 cycles
 SCF Done:  E(RB3LYP) =  -169.891191873     A.U. after    8 cycles
 SCF Done:  E(RB3LYP) =  -169.891201073     A.U. after    8 cycles
 SCF Done:  E(RB3LYP) =  -169.891203055     A.U. after    7 cycles
 Optimization completed.
    -- Stationary point found.
 Normal termination of Gaussian 16 at Sat Jun 18 12:22:39 2022.

 ------------------------------------------------------------------
 #N Geom=AllCheck Guess=TCheck SCRF=Check GenChk RB3LYP/ChkBas Freq
 ------------------------------------------------------------------

 Structure from the checkpoint file:  "/wrk/irikura/Gau-3574.chk"
 ---------------------------
 formaldoxime, B3LYP/pcseg-2
 ---------------------------
 Charge =  0 Multiplicity = 1

                         Standard orientation:
 ---------------------------------------------------------------------
 Center     Atomic      Atomic             Coordinates (Angstroms)
 Number     Number       Type             X           Y           Z
 ---------------------------------------------------------------------
      1          6           0        1.138101   -0.019390    0.000000
      2          7           0       -0.000000    0.532288    0.000000
      3          8           0       -1.033540   -0.410622   -0.000000
      4          1           0        1.995192    0.639157    0.000000
      5          1           0        1.270442   -1.098042    0.000000
      6          1           0       -1.825919    0.134185   -0.000000
 ---------------------------------------------------------------------

 SCF Done:  E(RB3LYP) =  -169.891203055     A.U. after    1 cycles

 The electronic state is 1-A'.
 Alpha  occ. eigenvalues --  -19.17403 -14.38086 -10.21047  -1.09532  -0.87407
 Alpha  occ. eigenvalues --   -0.61970  -0.54230  -0.47732  -0.43084  -0.42432
 Alpha  occ. eigenvalues --   -0.29498  -0.28238
 Alpha virt. eigenvalues --   -0.02525   0.01438   0.03875   0.06744   0.10004
 Alpha virt. eigenvalues --    0.14733   0.18222   0.20704   0.25989   0.27200
 Alpha virt. eigenvalues --    0.32327   0.33521   0.33730   0.37664   0.38278

 Mulliken charges:
               1
     1  C    0.062550
     2  N   -0.115514
     3  O   -0.264477
     4  H    0.060712
     5  H    0.037731
     6  H    0.218997
 Sum of Mulliken charges =  -0.00000

 Dipole moment (field-independent basis, Debye):
    X=              0.3048    Y=             -0.1092    Z=              0.0000  Tot=              0.3238
 Quadrupole moment (field-independent basis, Debye-Ang):
   XX=            -11.9853   YY=            -19.6943   ZZ=            -19.2581
   XY=             -1.4179   XZ=             -0.0000   YZ=             -0.0000

  Exact polarizability:  38.789  -0.831  23.787   0.000  -0.000  16.941
 Approx polarizability:  57.946  -3.143  32.912   0.000   0.000  22.779

                      1                      2                      3
                     A"                     A'                     A"
 Frequencies --    432.3088               536.4315               800.3469
 Red. masses --      1.1140                 2.4986                 1.1853
 Frc consts  --      0.1227                 0.4236                 0.4473
 IR Inten    --    133.7274                 6.6265                 6.7352

                      4                      5                      6
                     A'                     A"                     A'
 Frequencies --    917.4362               987.1651              1180.4966
 Red. masses --      6.6664                 1.3700                 1.5853
 Frc consts  --      3.3059                 0.7866                 1.3016
 IR Inten    --    131.1762                34.9059                11.5078

                      7                      8                      9
                     A'                     A'                     A'
 Frequencies --   1350.7699              1452.7536              1713.3038
 Red. masses --      1.2255                 1.1396                 5.0210
 Frc consts  --      1.3175                 1.4170                 8.6837
 IR Inten    --     85.1862                14.3084                 5.6291

                     10                     11                     12
                     A'                     A'                     A'
 Frequencies --   3099.4138              3226.7702              3824.2614
 Red. masses --      1.0590                 1.1154                 1.0676
 Frc consts  --      5.9938                 6.8428                 9.1994
 IR Inten    --      6.5654                 3.4671                94.3988

 - Thermochemistry -
 -------------------
 Temperature   298.150 Kelvin.  Pressure   1.00000 Atm.
 Atom     1 has atomic number  6 and mass  12.00000

 Molecular mass:    45.02146 amu.
 Principal axes and moments of inertia in atomic units:
                           1         2         3
     Eigenvalues --    25.73164 152.44435 178.17599
           X            0.98429  -0.17655   0.00000
           Y            0.17655   0.98429   0.00000
           Z            0.00000  -0.00000   1.00000
 This molecule is an asymmetric top.
 Rotational symmetry number  1.
 Rotational temperatures (Kelvin)      3.36605     0.56817     0.48611
 Rotational constants (GHZ):          70.13703    11.83869    10.12898
 Zero-point vibrational energy     116764.2 (Joules/Mol)
                                   27.90733 (Kcal/Mol)
 Warning -- explicit consideration of   2 degrees of freedom as
           vibrations may cause significant error
 Vibrational temperatures:    622.00   771.81  1151.52  1319.99  1420.31
          (Kelvin)           1698.47  1943.46  2090.19  2465.06  4459.37
                             4642.60  5502.26

 Zero-point correction=                           0.044473 (Hartree/Particle)
 Thermal correction to Energy=                    0.047986
 Thermal correction to Enthalpy=                  0.048930
 Thermal correction to Gibbs Free Energy=         0.020204
 Sum of electronic and zero-point Energies=           -169.846730
 Sum of electronic and thermal Energies=              -169.843217
 Sum of electronic and thermal Enthalpies=            -169.842273
 Sum of electronic and thermal Free Energies=         -169.870999

                     E (Thermal)             CV                S
                      KCal/Mol        Cal/Mol-Kelvin    Cal/Mol-Kelvin
 Total                   30.112             10.516             60.459
 Electronic               0.000              0.000              0.000
 Translational            0.889              2.981             37.339
 Rotational               0.889              2.981             21.174
 Vibrational             28.334              4.554              1.946
 Vibration     1          0.793              1.400              0.851
 Vibration     2          0.891              1.169              0.573

 Optimization completed.
    -- Stationary point found.
 Normal termination of Gaussian 16 at Sat Jun 18 12:22:59 2022.
