 Gaussian 16, Revision B.01,

 ---------------------------------------
 # b3lyp/gen opt freq CPHF(Grid=OneStep)
 ---------------------------------------

 --------------------------
 2-aza-allyl, B3LYP/pcseg-2
 --------------------------
 Symbolic Z-matrix:
 Charge =  0 Multiplicity = 2

 SCF Done:  E(UB3LYP) =  -133.350502217     A.U. after   13 cycles
 Optimization completed.
    -- Stationary point found.
 Normal termination of Gaussian 16 at Wed Sep 27 17:21:06 2023.

 ------------------------------------------------------------------
 #N Geom=AllCheck Guess=TCheck SCRF=Check GenChk UB3LYP/ChkBas Freq
 ------------------------------------------------------------------

 Structure from the checkpoint file:  "ch2nch2.chk"
 --------------------------
 2-aza-allyl, B3LYP/pcseg-2
 --------------------------
 Charge =  0 Multiplicity = 2

 SCF Done:  E(UB3LYP) =  -133.350502217     A.U. after    1 cycles

  Exact polarizability:  21.415   0.000  51.167  -0.000  -0.000  31.392
 Approx polarizability:  29.198   0.000  71.914   0.000  -0.000  43.079

                      1                      2                      3
                     A2                     A1                     B1
 Frequencies --    326.5638               470.6502               587.9760
 Red. masses --      1.0211                 2.0725                 1.2591
 Frc consts  --      0.0642                 0.2705                 0.2565
 IR Inten    --      0.0000                 3.8654                14.4629

                      4                      5                      6
                     A2                     B1                     B2
 Frequencies --    854.9524               879.0997              1107.5624
 Red. masses --      1.3135                 1.5020                 1.3794
 Frc consts  --      0.5657                 0.6839                 0.9969
 IR Inten    --      0.0000                48.2603                 8.4418

                      7                      8                      9
                     A1                     A1                     B2
 Frequencies --   1172.9796              1276.7483              1298.7165
 Red. masses --      1.8976                 2.3642                 4.7353
 Frc consts  --      1.5383                 2.2706                 4.7057
 IR Inten    --      0.7405                50.0294                 1.7410

                     10                     11                     12
                     B2                     A1                     B2
 Frequencies --   1497.4336              1549.2645              3028.1401
 Red. masses --      1.1140                 1.3121                 1.0554
 Frc consts  --      1.4718                 1.8555                 5.7021
 IR Inten    --      1.1301                 0.0193                 8.9629

                     13                     14                     15
                     A1                     B2                     A1
 Frequencies --   3039.9365              3197.7077              3199.8688
 Red. masses --      1.0601                 1.1060                 1.1079
 Frc consts  --      5.7722                 6.6634                 6.6838
 IR Inten    --     78.4441                 7.8230                15.0602

 - Thermochemistry -
 -------------------
 Temperature   298.150 Kelvin.  Pressure   1.00000 Atm.
 Atom     1 has atomic number  7 and mass  14.00307

 Molecular mass:    42.03437 amu.
 Principal axes and moments of inertia in atomic units:
                           1         2         3
     Eigenvalues --    26.89739 151.94500 178.84239
           X            0.00000   0.00000   1.00000
           Y            1.00000   0.00000  -0.00000
           Z            0.00000   1.00000   0.00000
 This molecule is an asymmetric top.
 Rotational symmetry number  2.
 Rotational temperatures (Kelvin)      3.22016     0.57003     0.48430
 Rotational constants (GHZ):          67.09726    11.87760    10.09124
 Zero-point vibrational energy     140487.0 (Joules/Mol)
                                   33.57721 (Kcal/Mol)
 Warning -- explicit consideration of   3 degrees of freedom as
           vibrations may cause significant error
 Vibrational temperatures:    469.85   677.16   845.97  1230.09  1264.83
          (Kelvin)           1593.54  1687.66  1836.96  1868.56  2154.47
                             2229.05  4356.82  4373.79  4600.79  4603.90

 Zero-point correction=                           0.053509 (Hartree/Particle)
 Thermal correction to Energy=                    0.057340
 Thermal correction to Enthalpy=                  0.058285
 Thermal correction to Gibbs Free Energy=         0.029139
 Sum of electronic and zero-point Energies=           -133.296994
 Sum of electronic and thermal Energies=              -133.293162
 Sum of electronic and thermal Enthalpies=            -133.292218
 Sum of electronic and thermal Free Energies=         -133.321363

                     E (Thermal)             CV                S
                      KCal/Mol        Cal/Mol-Kelvin    Cal/Mol-Kelvin
 Total                   35.982             11.995             61.341
 Electronic               0.000              0.000              1.377
 Translational            0.889              2.981             37.135
 Rotational               0.889              2.981             19.841
 Vibrational             34.204              6.033              2.988
 Vibration     1          0.710              1.622              1.277
 Vibration     2          0.828              1.315              0.736
 Vibration     3          0.945              1.057              0.471

 Optimization completed.
    -- Stationary point found.
 Normal termination of Gaussian 16 at Wed Sep 27 17:23:21 2023.
 Gaussian 16:  ES64L-G16RevB.01 20-Dec-2017

 ---------------------------------
 # rohf/gen geom=check guess=check
 ---------------------------------

 -----------------------------
 2-aza-allyl, ROHF/cc-pVTZ-F12
 -----------------------------
 Structure from the checkpoint file:  "ch2nch2.chk"
 Charge =  0 Multiplicity = 2

                         Standard orientation:
 ---------------------------------------------------------------------
 Center     Atomic      Atomic             Coordinates (Angstroms)
 Number     Number       Type             X           Y           Z
 ---------------------------------------------------------------------
      1          7           0       -0.000000    0.000000    0.505058
      2          6           0       -0.000000    1.138965   -0.154204
      3          6           0       -0.000000   -1.138965   -0.154204
      4          1           0       -0.000000    2.065864    0.403291
      5          1           0       -0.000000   -2.065864    0.403291
      6          1           0       -0.000000    1.181297   -1.245769
      7          1           0       -0.000000   -1.181297   -1.245769
 ---------------------------------------------------------------------

 SCF Done:  E(ROHF) =  -132.490026822     A.U. after   11 cycles

 The electronic state is 2-A2.
 Alpha  occ. eigenvalues --  -15.57778 -11.27062 -11.27061  -1.24414  -0.94347
 Alpha  occ. eigenvalues --   -0.78638  -0.66866  -0.65553  -0.55805  -0.47829
 Alpha  occ. eigenvalues --   -0.42046  -0.07567
 Alpha virt. eigenvalues --    0.05082   0.05386   0.06259   0.06666   0.08160
 Alpha virt. eigenvalues --    0.09252   0.10753   0.16003   0.16199   0.17502
 Alpha virt. eigenvalues --    0.18682   0.19826   0.20675   0.23515   0.24560

 Mulliken charges and spin densities:
               1          2
     1  N   -0.402517   0.031126
     2  C   -0.069358   0.461904
     3  C   -0.069358   0.461904
     4  H    0.166821   0.011877
     5  H    0.166821   0.011877
     6  H    0.103795   0.010657
     7  H    0.103795   0.010657
 Sum of Mulliken charges =  -0.00000   1.00000

 Dipole moment (field-independent basis, Debye):
    X=             -0.0000    Y=              0.0000    Z=             -1.7046  Tot=              1.7046
 Quadrupole moment (field-independent basis, Debye-Ang):
   XX=            -20.8005   YY=            -15.3118   ZZ=            -19.7234
   XY=              0.0000   XZ=             -0.0000   YZ=              0.0000

 Normal termination of Gaussian 16 at Wed Sep 27 17:23:34 2023.
