 Gaussian 16, Revision B.01,
 Gaussian 16:  ES64L-G16RevB.01 20-Dec-2017

 --------------------
 # b3lyp/gen opt freq
 --------------------

 ---------------------------------
 methylene amidogen, B3LYP/pcseg-2
 ---------------------------------
 Symbolic Z-matrix:
 Charge =  0 Multiplicity = 2

 SCF Done:  E(UB3LYP) =  -94.0229574512     A.U. after   15 cycles
 SCF Done:  E(UB3LYP) =  -94.0230287627     A.U. after   10 cycles
 SCF Done:  E(UB3LYP) =  -94.0230293599     A.U. after    9 cycles
 Optimization completed.
    -- Stationary point found.
 Normal termination of Gaussian 16 at Thu Jun 16 10:02:35 2022.

 ------------------------------------------------------------------
 #N Geom=AllCheck Guess=TCheck SCRF=Check GenChk UB3LYP/ChkBas Freq
 ------------------------------------------------------------------

 Structure from the checkpoint file:  "/wrk/irikura/Gau-28931.chk"
 ---------------------------------
 methylene amidogen, B3LYP/pcseg-2
 ---------------------------------
 Charge =  0 Multiplicity = 2

                         Standard orientation:
 ---------------------------------------------------------------------
 Center     Atomic      Atomic             Coordinates (Angstroms)
 Number     Number       Type             X           Y           Z
 ---------------------------------------------------------------------
      1          6           0        0.000000   -0.000000   -0.500878
      2          7           0        0.000000    0.000000    0.736617
      3          1           0       -0.000000    0.934572   -1.075524
      4          1           0       -0.000000   -0.934572   -1.075524
 ---------------------------------------------------------------------

 SCF Done:  E(UB3LYP) =  -94.0230293599     A.U. after    1 cycles

 The electronic state is 2-B2.
 Alpha  occ. eigenvalues --  -14.35604 -10.22646  -0.92866  -0.61582  -0.50531
 Alpha  occ. eigenvalues --   -0.39405  -0.36226  -0.27565
 Alpha virt. eigenvalues --   -0.03281   0.01927   0.06386   0.09112   0.16923
 Alpha virt. eigenvalues --    0.20098   0.24121   0.28009   0.31569   0.32984
 Alpha virt. eigenvalues --    0.34963   0.39227   0.48492   0.52365   0.63070

  Beta  occ. eigenvalues --  -14.33581 -10.22911  -0.89400  -0.59625  -0.47591
  Beta  occ. eigenvalues --   -0.36853  -0.35092
  Beta virt. eigenvalues --   -0.10505  -0.02376   0.02131   0.06775   0.09431
  Beta virt. eigenvalues --    0.16602   0.20675   0.25672   0.28320   0.31892
  Beta virt. eigenvalues --    0.34417   0.35787   0.42010   0.49553   0.53624

 Mulliken charges and spin densities:
               1          2
     1  C    0.063580  -0.167975
     2  N   -0.194396   0.948493
     3  H    0.065408   0.109741
     4  H    0.065408   0.109741
 Sum of Mulliken charges =  -0.00000   1.00000

 Dipole moment (field-independent basis, Debye):
    X=             -0.0000    Y=             -0.0000    Z=             -2.5293  Tot=              2.5293
 Quadrupole moment (field-independent basis, Debye-Ang):
   XX=            -12.9241   YY=            -11.1717   ZZ=            -13.0993
   XY=              0.0000   XZ=              0.0000   YZ=              0.0000

  Exact polarizability:  12.808  -0.000  16.667   0.000   0.000  25.573
 Approx polarizability:  16.779   0.000  20.589   0.000   0.000  40.393

                      1                      2                      3
                     B2                     B1                     A1
 Frequencies --    935.9112               997.2746              1378.6556
 Red. masses --      1.3499                 1.3580                 1.0793
 Frc consts  --      0.6966                 0.7958                 1.2087
 IR Inten    --      7.4368                34.8684                15.8347

                      4                      5                      6
                     A1                     A1                     B2
 Frequencies --   1721.6643              2964.9493              3019.5328
 Red. masses --      8.7338                 1.0467                 1.1110
 Frc consts  --     15.2528                 5.4211                 5.9683
 IR Inten    --      0.5984                 0.1551                10.4728

 - Thermochemistry -
 -------------------
 Temperature   298.150 Kelvin.  Pressure   1.00000 Atm.
 Atom     1 has atomic number  6 and mass  12.00000

 Molecular mass:    28.01872 amu.
 Principal axes and moments of inertia in atomic units:
                           1         2         3
     Eigenvalues --     6.28693  45.62881  51.91574
           X            0.00000   0.00000   1.00000
           Y            0.00000   1.00000   0.00000
           Z            1.00000   0.00000   0.00000
 This molecule is an asymmetric top.
 Rotational symmetry number  2.
 Rotational temperatures (Kelvin)     13.77682     1.89823     1.66836
 Rotational constants (GHZ):         287.06236    39.55267    34.76289
 Zero-point vibrational energy      65902.2 (Joules/Mol)
                                   15.75100 (Kcal/Mol)
 Vibrational temperatures:   1346.57  1434.86  1983.58  2477.09  4265.90
          (Kelvin)           4344.43

 Zero-point correction=                           0.025101 (Hartree/Particle)
 Thermal correction to Energy=                    0.028028
 Thermal correction to Enthalpy=                  0.028972
 Thermal correction to Gibbs Free Energy=         0.003545
 Sum of electronic and zero-point Energies=            -93.997929
 Sum of electronic and thermal Energies=               -93.995002
 Sum of electronic and thermal Enthalpies=             -93.994057
 Sum of electronic and thermal Free Energies=          -94.019484

                     E (Thermal)             CV                S
                      KCal/Mol        Cal/Mol-Kelvin    Cal/Mol-Kelvin
 Total                   17.588              6.943             53.515
 Electronic               0.000              0.000              1.377
 Translational            0.889              2.981             35.926
 Rotational               0.889              2.981             15.973
 Vibrational             15.810              0.981              0.240

 Optimization completed.
    -- Stationary point found.
 Normal termination of Gaussian 16 at Thu Jun 16 10:02:45 2022.
