 Gaussian 16, Revision B.01,

 ---------------------------------------
 # b3lyp/gen opt freq CPHF(Grid=OneStep)
 ---------------------------------------

 --------------------------
 methanimine, B3LYP/pcseg-2
 --------------------------
 Symbolic Z-matrix:
 Charge =  0 Multiplicity = 1

 SCF Done:  E(RB3LYP) =  -94.6734653109     A.U. after   11 cycles
 Optimization completed.
    -- Stationary point found.
 Normal termination of Gaussian 16 at Wed Sep 27 17:27:56 2023.

 ------------------------------------------------------------------
 #N Geom=AllCheck Guess=TCheck SCRF=Check GenChk RB3LYP/ChkBas Freq
 ------------------------------------------------------------------

 Structure from the checkpoint file:  "ch2nh.chk"
 --------------------------
 methanimine, B3LYP/pcseg-2
 --------------------------
 Charge =  0 Multiplicity = 1

 SCF Done:  E(RB3LYP) =  -94.6734653109     A.U. after    1 cycles

  Exact polarizability:  19.856   0.929  28.504   0.000   0.000  14.023
 Approx polarizability:  25.243   1.287  42.820  -0.000  -0.000  18.633

                      1                      2                      3
                     A'                     A"                     A"
 Frequencies --   1073.7906              1105.5222              1165.8764
 Red. masses --      1.0712                 1.3650                 1.0718
 Frc consts  --      0.7277                 0.9829                 0.8584
 IR Inten    --     37.0593                15.7914                47.8406

                      4                      5                      6
                     A'                     A'                     A'
 Frequencies --   1368.8059              1493.2629              1710.8516
 Red. masses --      1.4062                 1.1851                 4.4342
 Frc consts  --      1.5524                 1.5569                 7.6470
 IR Inten    --     41.5474                 6.9620                23.5808

                      7                      8                      9
                     A'                     A'                     A'
 Frequencies --   3016.4787              3114.2405              3435.0043
 Red. masses --      1.0597                 1.1095                 1.0754
 Frc consts  --      5.6814                 6.3401                 7.4759
 IR Inten    --     51.9916                32.8130                 0.9412

 - Thermochemistry -
 -------------------
 Temperature   298.150 Kelvin.  Pressure   1.00000 Atm.
 Atom     1 has atomic number  6 and mass  12.00000

 Molecular mass:    29.02655 amu.
 Principal axes and moments of inertia in atomic units:
                           1         2         3
     Eigenvalues --     9.04705  51.44679  60.49385
           X            0.07958   0.99683   0.00000
           Y            0.99683  -0.07958   0.00000
           Z            0.00000  -0.00000   1.00000
 This molecule is an asymmetric top.
 Rotational symmetry number  1.
 Rotational temperatures (Kelvin)      9.57371     1.68356     1.43178
 Rotational constants (GHZ):         199.48384    35.07976    29.83347
 Zero-point vibrational energy     104576.5 (Joules/Mol)
                                   24.99439 (Kcal/Mol)
 Vibrational temperatures:   1544.95  1590.60  1677.44  1969.41  2148.47
          (Kelvin)           2461.53  4340.04  4480.70  4942.21

 Zero-point correction=                           0.039831 (Hartree/Particle)
 Thermal correction to Energy=                    0.042750
 Thermal correction to Enthalpy=                  0.043695
 Thermal correction to Gibbs Free Energy=         0.017929
 Sum of electronic and zero-point Energies=            -94.633634
 Sum of electronic and thermal Energies=               -94.630715
 Sum of electronic and thermal Enthalpies=             -94.629771
 Sum of electronic and thermal Free Energies=          -94.655537

                     E (Thermal)             CV                S
                      KCal/Mol        Cal/Mol-Kelvin    Cal/Mol-Kelvin
 Total                   26.826              6.998             54.229
 Electronic               0.000              0.000              0.000
 Translational            0.889              2.981             36.031
 Rotational               0.889              2.981             17.983
 Vibrational             25.049              1.037              0.215

 Optimization completed.
    -- Stationary point found.
 Normal termination of Gaussian 16 at Wed Sep 27 17:28:28 2023.
 Gaussian 16:  ES64L-G16RevB.01 20-Dec-2017

 ---------------------------------
 # rohf/gen geom=check guess=check
 ---------------------------------

 -----------------------------
 methanimine, ROHF/cc-pVTZ-F12
 -----------------------------
 Structure from the checkpoint file:  "ch2nh.chk"
 Charge =  0 Multiplicity = 1

                         Standard orientation:
 ---------------------------------------------------------------------
 Center     Atomic      Atomic             Coordinates (Angstroms)
 Number     Number       Type             X           Y           Z
 ---------------------------------------------------------------------
      1          6           0        0.055913    0.582836    0.000000
      2          7           0        0.055913   -0.680350    0.000000
      3          1           0       -0.841768    1.207668    0.000000
      4          1           0        1.008845    1.110077    0.000000
      5          1           0       -0.893952   -1.052310    0.000000
 ---------------------------------------------------------------------

 SCF Done:  E(ROHF) =  -94.0749222838     A.U. after   11 cycles

 The electronic state is 1-A'.
 Alpha  occ. eigenvalues --  -15.56324 -11.28353  -1.21260  -0.84504  -0.68744
 Alpha  occ. eigenvalues --   -0.60701  -0.45315  -0.43086
 Alpha virt. eigenvalues --    0.05705   0.06238   0.06967   0.07099   0.12601
 Alpha virt. eigenvalues --    0.13519   0.14303   0.18526   0.20086   0.23054
 Alpha virt. eigenvalues --    0.24232   0.27837   0.32052   0.39559   0.41252

 Mulliken charges and spin densities:
               1          2
     1  C    0.071273   0.000000
     2  N   -0.506034   0.000000
     3  H    0.085397   0.000000
     4  H    0.123904   0.000000
     5  H    0.225460   0.000000
 Sum of Mulliken charges =  -0.00000   0.00000

 Dipole moment (field-independent basis, Debye):
    X=             -1.4430    Y=              1.7029    Z=              0.0000  Tot=              2.2321
 Quadrupole moment (field-independent basis, Debye-Ang):
   XX=            -11.6953   YY=            -12.6032   ZZ=            -13.9044
   XY=              2.1184   XZ=              0.0000   YZ=              0.0000

 Normal termination of Gaussian 16 at Wed Sep 27 17:28:34 2023.
