 Gaussian 16, Revision B.01,
 Gaussian 16:  ES64L-G16RevB.01 20-Dec-2017

 ----------------------------------------------
 # b3lyp/gen opt=calcfc freq CPHF(Grid=OneStep)
 ----------------------------------------------

 --------------------------------
 hydroperoxymethyl, B3LYP/pcseg-2
 --------------------------------
 Symbolic Z-matrix:
 Charge =  0 Multiplicity = 2

 SCF Done:  E(UB3LYP) =  -190.329880658     A.U. after   23 cycles
 SCF Done:  E(UB3LYP) =  -190.329891516     A.U. after   18 cycles
 SCF Done:  E(UB3LYP) =  -190.329917971     A.U. after   18 cycles
 SCF Done:  E(UB3LYP) =  -190.329921303     A.U. after   16 cycles
 SCF Done:  E(UB3LYP) =  -190.329921587     A.U. after   14 cycles
 Optimization completed.
    -- Stationary point found.
 Normal termination of Gaussian 16 at Sat Sep 16 00:19:21 2023.

 ------------------------------------------------------------------
 #N Geom=AllCheck Guess=TCheck SCRF=Check GenChk UB3LYP/ChkBas Freq
 ------------------------------------------------------------------

 Structure from the checkpoint file:  "/wrk/irikura/Gau-104245.chk"
 --------------------------------
 hydroperoxymethyl, B3LYP/pcseg-2
 --------------------------------
 Charge =  0 Multiplicity = 2

                         Standard orientation:
 ---------------------------------------------------------------------
 Center     Atomic      Atomic             Coordinates (Angstroms)
 Number     Number       Type             X           Y           Z
 ---------------------------------------------------------------------
      1          6           0        1.232718    0.384590    0.000025
      2          8           0        0.601959   -0.638883   -0.000017
      3          1           0        0.740432    1.368419    0.000258
      4          1           0        2.336528    0.372406   -0.000168
      5          8           0       -1.678567    0.223966   -0.000067
      6          1           0       -1.860404   -0.729026    0.000431
 ---------------------------------------------------------------------

 SCF Done:  E(UB3LYP) =  -190.329921587     A.U. after    1 cycles

 The electronic state is 2-A.
 Alpha  occ. eigenvalues --  -19.16706 -19.16547 -10.28635  -1.08908  -0.98917
 Alpha  occ. eigenvalues --   -0.65289  -0.52156  -0.48147  -0.45372  -0.42646
 Alpha  occ. eigenvalues --   -0.38581  -0.32070  -0.29212
 Alpha virt. eigenvalues --   -0.07118   0.01886   0.03216   0.07122   0.11209
 Alpha virt. eigenvalues --    0.16244   0.19466   0.26408   0.29557   0.30386
 Alpha virt. eigenvalues --    0.32937   0.33319   0.34951   0.39907   0.42191

  Beta  occ. eigenvalues --  -19.16398 -19.14023 -10.28660  -1.08386  -0.92358
  Beta  occ. eigenvalues --   -0.65161  -0.51605  -0.47677  -0.42999  -0.42424
  Beta  occ. eigenvalues --   -0.29640  -0.29239
  Beta virt. eigenvalues --   -0.14443  -0.07037   0.01980   0.03576   0.07172
  Beta virt. eigenvalues --    0.11524   0.16237   0.19513   0.26713   0.30454
  Beta virt. eigenvalues --    0.30923   0.33160   0.33602   0.35487   0.41016

 Mulliken charges and spin densities:
               1          2
     1  C    0.319922  -0.013911
     2  O   -0.336862   0.072780
     3  H    0.049243   0.008723
     4  H    0.033133   0.004711
     5  O   -0.282339   0.941094
     6  H    0.216903  -0.013397
 Sum of Mulliken charges =  -0.00000   1.00000

 Dipole moment (field-independent basis, Debye):
    X=              1.8091    Y=              0.3967    Z=              0.0010  Tot=              1.8521
 Quadrupole moment (field-independent basis, Debye-Ang):
   XX=            -14.6388   YY=            -17.3916   ZZ=            -18.5504
   XY=              4.8875   XZ=             -0.0019   YZ=             -0.0009

  Exact polarizability:  43.689   2.187  25.619  -0.001  -0.000  15.296
 Approx polarizability:  46.722   3.025  38.557  -0.000  -0.001  19.453

                      1                      2                      3
                      A                      A                      A
 Frequencies --     84.4092               109.8224               180.8618
 Red. masses --      1.0950                 5.3356                 4.5691
 Frc consts  --      0.0046                 0.0379                 0.0881
 IR Inten    --    122.3491                10.6322                45.4791

                      4                      5                      6
                      A                      A                      A
 Frequencies --    181.5132               373.4844              1208.0342
 Red. masses --      1.0775                 1.0609                 1.3626
 Frc consts  --      0.0209                 0.0872                 1.1716
 IR Inten    --     26.0313                77.3926                 4.5951

                      7                      8                      9
                      A                      A                      A
 Frequencies --   1260.9467              1520.3017              1799.3847
 Red. masses --      1.3376                 1.1000                 7.7187
 Frc consts  --      1.2530                 1.4980                14.7246
 IR Inten    --      5.0055                11.4210               126.2033

                     10                     11                     12
                      A                      A                      A
 Frequencies --   2918.5333              3005.5700              3751.4705
 Red. masses --      1.0485                 1.1164                 1.0671
 Frc consts  --      5.2617                 5.9417                 8.8486
 IR Inten    --     99.3750                41.0336                31.4373

 - Thermochemistry -
 -------------------
 Temperature   298.150 Kelvin.  Pressure   1.00000 Atm.
 Atom     1 has atomic number  6 and mass  12.00000

 Molecular mass:    47.01330 amu.
 Principal axes and moments of inertia in atomic units:
                           1         2         3
     Eigenvalues --    41.03570 281.27891 322.31460
           X            0.99884   0.04816  -0.00001
           Y           -0.04816   0.99884  -0.00000
           Z            0.00001   0.00001   1.00000
 This molecule is an asymmetric top.
 Rotational symmetry number  1.
 Rotational temperatures (Kelvin)      2.11070     0.30793     0.26872
 Rotational constants (GHZ):          43.97979     6.41620     5.59932
 Zero-point vibrational energy      98059.9 (Joules/Mol)
                                   23.43687 (Kcal/Mol)
 Warning -- explicit consideration of   5 degrees of freedom as
           vibrations may cause significant error
 Vibrational temperatures:    121.45   158.01   260.22   261.16   537.36
          (Kelvin)           1738.09  1814.22  2187.38  2588.91  4199.12
                             4324.34  5397.53

 Zero-point correction=                           0.037349 (Hartree/Particle)
 Thermal correction to Energy=                    0.043215
 Thermal correction to Enthalpy=                  0.044160
 Thermal correction to Gibbs Free Energy=         0.008751
 Sum of electronic and zero-point Energies=           -190.292573
 Sum of electronic and thermal Energies=              -190.286706
 Sum of electronic and thermal Enthalpies=            -190.285762
 Sum of electronic and thermal Free Energies=         -190.321170

                     E (Thermal)             CV                S
                      KCal/Mol        Cal/Mol-Kelvin    Cal/Mol-Kelvin
 Total                   27.118             15.584             74.523
 Electronic               0.000              0.000              1.377
 Translational            0.889              2.981             37.468
 Rotational               0.889              2.981             22.835
 Vibrational             25.341              9.622             12.842
 Vibration     1          0.601              1.960              3.786
 Vibration     2          0.606              1.941              3.272
 Vibration     3          0.630              1.866              2.319
 Vibration     4          0.630              1.865              2.313
 Vibration     5          0.745              1.527              1.065

 Optimization completed.
    -- Stationary point found.
 Normal termination of Gaussian 16 at Sat Sep 16 00:20:15 2023.
