 Gaussian 16, Revision B.01,

 ---------------------------------------
 # b3lyp/gen opt freq CPHF(Grid=OneStep)
 ---------------------------------------

 -------------------
 CH2O, B3LYP/pcseg-2
 -------------------
 Symbolic Z-matrix:
 Charge =  0 Multiplicity = 1

 SCF Done:  E(RB3LYP) =  -114.554613510     A.U. after   11 cycles
 Optimization completed.
    -- Stationary point found.
 Normal termination of Gaussian 16 at Sun Oct  1 00:39:56 2023.

 ------------------------------------------------------------------
 #N Geom=AllCheck Guess=TCheck SCRF=Check GenChk RB3LYP/ChkBas Freq
 ------------------------------------------------------------------

 Structure from the checkpoint file:  "ch2o.chk"
 -------------------
 CH2O, B3LYP/pcseg-2
 -------------------
 Charge =  0 Multiplicity = 1

 SCF Done:  E(RB3LYP) =  -114.554613510     A.U. after    1 cycles

  Exact polarizability:  10.225   0.000  15.959   0.000  -0.000  21.598
 Approx polarizability:  13.563   0.000  19.080   0.000  -0.000  33.137

                      1                      2                      3
                     B1                     B2                     A1
 Frequencies --   1204.5442              1267.6116              1534.4611
 Red. masses --      1.3681                 1.3439                 1.1088
 Frc consts  --      1.1695                 1.2723                 1.5383
 IR Inten    --      3.6857                12.1043                10.2564

                      4                      5                      6
                     A1                     A1                     B2
 Frequencies --   1816.3063              2885.5382              2942.5414
 Red. masses --      7.3608                 1.0424                 1.1207
 Frc consts  --     14.3071                 5.1136                 5.7172
 IR Inten    --    117.4697                69.7355               134.0696

 - Thermochemistry -
 -------------------
 Temperature   298.150 Kelvin.  Pressure   1.00000 Atm.
 Atom     1 has atomic number  6 and mass  12.00000

 Molecular mass:    30.01056 amu.
 Principal axes and moments of inertia in atomic units:
                           1         2         3
     Eigenvalues --     6.33144  46.05566  52.38711
           X            0.00000   0.00000   1.00000
           Y            0.00000   1.00000   0.00000
           Z            1.00000   0.00000   0.00000
 This molecule is an asymmetric top.
 Rotational symmetry number  2.
 Rotational temperatures (Kelvin)     13.67996     1.88064     1.65334
 Rotational constants (GHZ):         285.04416    39.18609    34.45010
 Zero-point vibrational energy      69688.5 (Joules/Mol)
                                   16.65594 (Kcal/Mol)
 Vibrational temperatures:   1733.07  1823.81  2207.75  2613.26  4151.65
          (Kelvin)           4233.66

 Zero-point correction=                           0.026543 (Hartree/Particle)
 Thermal correction to Energy=                    0.029410
 Thermal correction to Enthalpy=                  0.030354
 Thermal correction to Gibbs Free Energy=         0.005546
 Sum of electronic and zero-point Energies=           -114.528071
 Sum of electronic and thermal Energies=              -114.525203
 Sum of electronic and thermal Enthalpies=            -114.524259
 Sum of electronic and thermal Free Energies=         -114.549067

                     E (Thermal)             CV                S
                      KCal/Mol        Cal/Mol-Kelvin    Cal/Mol-Kelvin
 Total                   18.455              6.419             52.213
 Electronic               0.000              0.000              0.000
 Translational            0.889              2.981             36.130
 Rotational               0.889              2.981             15.998
 Vibrational             16.678              0.457              0.085

 Optimization completed.
    -- Stationary point found.
 Normal termination of Gaussian 16 at Sun Oct  1 00:40:12 2023.
 Gaussian 16:  ES64L-G16RevB.01 20-Dec-2017

 ---------------------------------
 # rohf/gen geom=check guess=check
 ---------------------------------

 ----------------------
 CH2O, ROHF/cc-pVTZ-F12
 ----------------------
 Structure from the checkpoint file:  "ch2o.chk"
 Charge =  0 Multiplicity = 1

                         Standard orientation:
 ---------------------------------------------------------------------
 Center     Atomic      Atomic             Coordinates (Angstroms)
 Number     Number       Type             X           Y           Z
 ---------------------------------------------------------------------
      1          6           0       -0.000000   -0.000000   -0.526271
      2          8           0        0.000000    0.000000    0.672821
      3          1           0       -0.000000    0.937875   -1.112468
      4          1           0       -0.000000   -0.937875   -1.112468
 ---------------------------------------------------------------------

 SCF Done:  E(ROHF) =  -113.921179919     A.U. after   11 cycles

 The electronic state is 1-A1.
 Alpha  occ. eigenvalues --  -20.57612 -11.34099  -1.41072  -0.86895  -0.69524
 Alpha  occ. eigenvalues --   -0.65473  -0.54057  -0.44261
 Alpha virt. eigenvalues --    0.05220   0.05793   0.06495   0.07619   0.12925
 Alpha virt. eigenvalues --    0.16852   0.18892   0.19598   0.19927   0.23482
 Alpha virt. eigenvalues --    0.28512   0.30637   0.41139   0.42931   0.43206

 Mulliken charges and spin densities:
               1          2
     1  C    0.242560   0.000000
     2  O   -0.435061   0.000000
     3  H    0.096251   0.000000
     4  H    0.096251   0.000000
 Sum of Mulliken charges =  -0.00000   0.00000

 Dipole moment (field-independent basis, Debye):
    X=             -0.0000    Y=             -0.0000    Z=             -2.8188  Tot=              2.8188
 Quadrupole moment (field-independent basis, Debye-Ang):
   XX=            -11.7341   YY=            -11.4245   ZZ=            -12.1179
   XY=              0.0000   XZ=              0.0000   YZ=             -0.0000

 Normal termination of Gaussian 16 at Sun Oct  1 00:40:16 2023.
