 Gaussian 16, Revision B.01,
 Gaussian 16:  ES64L-G16RevB.01 20-Dec-2017

 --------------------
 # b3lyp/gen opt freq
 --------------------

 -------------------
 CH2O, B3LYP/pcseg-2
 -------------------
 Symbolic Z-matrix:
 Charge =  0 Multiplicity = 1

 SCF Done:  E(RB3LYP) =  -114.529457086     A.U. after   10 cycles
 SCF Done:  E(RB3LYP) =  -114.553004277     A.U. after   10 cycles
 SCF Done:  E(RB3LYP) =  -114.554495028     A.U. after   10 cycles
 SCF Done:  E(RB3LYP) =  -114.554612382     A.U. after    7 cycles
 SCF Done:  E(RB3LYP) =  -114.554613510     A.U. after    6 cycles
 Optimization completed.
    -- Stationary point found.
 Normal termination of Gaussian 16 at Wed Feb  2 17:45:41 2022.

 ------------------------------------------------------------------
 #N Geom=AllCheck Guess=TCheck SCRF=Check GenChk RB3LYP/ChkBas Freq
 ------------------------------------------------------------------

 Structure from the checkpoint file:  "/wrk/irikura/Gau-15298.chk"
 -------------------
 CH2O, B3LYP/pcseg-2
 -------------------
 Charge =  0 Multiplicity = 1

                         Standard orientation:
 ---------------------------------------------------------------------
 Center     Atomic      Atomic             Coordinates (Angstroms)
 Number     Number       Type             X           Y           Z
 ---------------------------------------------------------------------
      1          6           0        0.000000   -0.000000   -0.526271
      2          8           0       -0.000000    0.000000    0.672821
      3          1           0       -0.000000    0.937875   -1.112468
      4          1           0       -0.000000   -0.937875   -1.112468
 ---------------------------------------------------------------------

 SCF Done:  E(RB3LYP) =  -114.554613510     A.U. after    1 cycles

 The electronic state is 1-A1.
 Alpha  occ. eigenvalues --  -19.14785 -10.27741  -1.07327  -0.64338  -0.50679
 Alpha  occ. eigenvalues --   -0.46321  -0.41360  -0.28090
 Alpha virt. eigenvalues --   -0.06112   0.01863   0.06679   0.09112   0.16368
 Alpha virt. eigenvalues --    0.20441   0.23224   0.31057   0.33171   0.33464
 Alpha virt. eigenvalues --    0.41492   0.46970   0.50143   0.63592   0.69098

 Mulliken charges:
               1
     1  C    0.295697
     2  O   -0.329909
     3  H    0.017106
     4  H    0.017106
 Sum of Mulliken charges =  -0.00000

 Dipole moment (field-independent basis, Debye):
    X=              0.0000    Y=             -0.0000    Z=             -2.3960  Tot=              2.3960
 Quadrupole moment (field-independent basis, Debye-Ang):
   XX=            -11.7092   YY=            -11.7046   ZZ=            -12.3881
   XY=              0.0000   XZ=              0.0000   YZ=             -0.0000

  Exact polarizability:  10.225  -0.000  15.959  -0.000  -0.000  21.598
 Approx polarizability:  13.563   0.000  19.080   0.000  -0.000  33.137

                      1                      2                      3
                     B1                     B2                     A1
 Frequencies --   1204.5431              1267.6102              1534.4622
 Red. masses --      1.3681                 1.3439                 1.1088
 Frc consts  --      1.1695                 1.2723                 1.5383
 IR Inten    --      3.6859                12.1060                10.2564

                      4                      5                      6
                     A1                     A1                     B2
 Frequencies --   1816.3046              2885.5422              2942.5406
 Red. masses --      7.3607                 1.0424                 1.1207
 Frc consts  --     14.3070                 5.1136                 5.7172
 IR Inten    --    117.4686                69.7359               134.0838

 - Thermochemistry -
 -------------------
 Temperature   298.150 Kelvin.  Pressure   1.00000 Atm.
 Atom     1 has atomic number  6 and mass  12.00000

 Molecular mass:    30.01056 amu.
 Principal axes and moments of inertia in atomic units:
                           1         2         3
     Eigenvalues --     6.33144  46.05565  52.38709
           X            0.00000   0.00000   1.00000
           Y            0.00000   1.00000   0.00000
           Z            1.00000   0.00000   0.00000
 This molecule is an asymmetric top.
 Rotational symmetry number  2.
 Rotational temperatures (Kelvin)     13.67997     1.88064     1.65334
 Rotational constants (GHZ):         285.04432    39.18610    34.45011
 Zero-point vibrational energy      69688.5 (Joules/Mol)
                                   16.65594 (Kcal/Mol)
 Vibrational temperatures:   1733.07  1823.81  2207.75  2613.26  4151.65
          (Kelvin)           4233.66

 Zero-point correction=                           0.026543 (Hartree/Particle)
 Thermal correction to Energy=                    0.029410
 Thermal correction to Enthalpy=                  0.030354
 Thermal correction to Gibbs Free Energy=         0.005546
 Sum of electronic and zero-point Energies=           -114.528071
 Sum of electronic and thermal Energies=              -114.525203
 Sum of electronic and thermal Enthalpies=            -114.524259
 Sum of electronic and thermal Free Energies=         -114.549067

                     E (Thermal)             CV                S
                      KCal/Mol        Cal/Mol-Kelvin    Cal/Mol-Kelvin
 Total                   18.455              6.419             52.213
 Electronic               0.000              0.000              0.000
 Translational            0.889              2.981             36.130
 Rotational               0.889              2.981             15.998
 Vibrational             16.678              0.457              0.085

 Optimization completed.
    -- Stationary point found.
 Normal termination of Gaussian 16 at Wed Feb  2 17:46:11 2022.
