 Gaussian 16, Revision B.01,

 ---------------------------------------
 # b3lyp/gen opt freq CPHF(Grid=OneStep)
 ---------------------------------------

 ----------------------------
 hydroxymethyl, B3LYP/pcseg-2
 ----------------------------
 Symbolic Z-matrix:
 Charge =  0 Multiplicity = 2

 SCF Done:  E(UB3LYP) =  -115.116277638     A.U. after   13 cycles
 Optimization completed.
    -- Stationary point found.
 Normal termination of Gaussian 16 at Fri Sep 29 16:25:57 2023.

 ------------------------------------------------------------------
 #N Geom=AllCheck Guess=TCheck SCRF=Check GenChk UB3LYP/ChkBas Freq
 ------------------------------------------------------------------

 Structure from the checkpoint file:  "ch2oh.chk"
 ----------------------------
 hydroxymethyl, B3LYP/pcseg-2
 ----------------------------
 Charge =  0 Multiplicity = 2

 SCF Done:  E(UB3LYP) =  -115.116277638     A.U. after    1 cycles

  Exact polarizability:  21.446   0.491  17.664  -0.032  -0.011  15.726
 Approx polarizability:  26.263   0.490  22.510   0.006  -0.136  18.744

                      1                      2                      3
                      A                      A                      A
 Frequencies --    413.2620               527.9000              1053.0820
 Red. masses --      1.1543                 1.1985                 1.0806
 Frc consts  --      0.1161                 0.1968                 0.7060
 IR Inten    --     30.3160               129.0744                48.3269

                      4                      5                      6
                      A                      A                      A
 Frequencies --   1201.3635              1356.9763              1484.3238
 Red. masses --      5.2624                 1.2809                 1.1522
 Frc consts  --      4.4749                 1.3897                 1.4956
 IR Inten    --    106.8464                28.3661                 7.9452

                      7                      8                      9
                      A                      A                      A
 Frequencies --   3136.8322              3279.6237              3834.8943
 Red. masses --      1.0459                 1.1245                 1.0665
 Frc consts  --      6.0634                 7.1261                 9.2410
 IR Inten    --     19.0666                10.4444                60.3152

 - Thermochemistry -
 -------------------
 Temperature   298.150 Kelvin.  Pressure   1.00000 Atm.
 Atom     1 has atomic number  6 and mass  12.00000

 Molecular mass:    31.01839 amu.
 Principal axes and moments of inertia in atomic units:
                           1         2         3
     Eigenvalues --     9.27357  60.26915  69.02280
           X            0.99841   0.05249  -0.02057
           Y           -0.05234   0.99860   0.00763
           Z            0.02094  -0.00654   0.99976
 This molecule is an asymmetric top.
 Rotational symmetry number  1.
 Rotational temperatures (Kelvin)      9.33987     1.43712     1.25486
 Rotational constants (GHZ):         194.61127    29.94470    26.14703
 Zero-point vibrational energy      97425.4 (Joules/Mol)
                                   23.28523 (Kcal/Mol)
 Warning -- explicit consideration of   2 degrees of freedom as
           vibrations may cause significant error
 Vibrational temperatures:    594.59   759.53  1515.15  1728.49  1952.39
          (Kelvin)           2135.61  4513.20  4718.65  5517.56

 Zero-point correction=                           0.037107 (Hartree/Particle)
 Thermal correction to Energy=                    0.040502
 Thermal correction to Enthalpy=                  0.041446
 Thermal correction to Gibbs Free Energy=         0.014097
 Sum of electronic and zero-point Energies=           -115.079170
 Sum of electronic and thermal Energies=              -115.075776
 Sum of electronic and thermal Enthalpies=            -115.074832
 Sum of electronic and thermal Free Energies=         -115.102180

                     E (Thermal)             CV                S
                      KCal/Mol        Cal/Mol-Kelvin    Cal/Mol-Kelvin
 Total                   25.415              9.320             57.560
 Electronic               0.000              0.000              1.377
 Translational            0.889              2.981             36.229
 Rotational               0.889              2.981             18.296
 Vibrational             23.638              3.358              1.658
 Vibration     1          0.777              1.441              0.915
 Vibration     2          0.883              1.188              0.592

 Optimization completed.
    -- Stationary point found.
 Normal termination of Gaussian 16 at Fri Sep 29 16:27:01 2023.
 Gaussian 16:  ES64L-G16RevB.01 20-Dec-2017

 ---------------------------------
 # rohf/gen geom=check guess=check
 ---------------------------------

 -------------------------------
 hydroxymethyl, ROHF/cc-pVTZ-F12
 -------------------------------
 Structure from the checkpoint file:  "ch2oh.chk"
 Charge =  0 Multiplicity = 2

                         Standard orientation:
 ---------------------------------------------------------------------
 Center     Atomic      Atomic             Coordinates (Angstroms)
 Number     Number       Type             X           Y           Z
 ---------------------------------------------------------------------
      1          6           0       -0.684188    0.027583   -0.057847
      2          8           0        0.669485   -0.125548    0.019940
      3          1           0       -1.235869   -0.885407    0.091443
      4          1           0       -1.116969    0.995427    0.151952
      5          1           0        1.102082    0.728861   -0.055829
 ---------------------------------------------------------------------

 SCF Done:  E(ROHF) =  -114.467390499     A.U. after   15 cycles

 The electronic state is 2-A.
 Alpha  occ. eigenvalues --  -20.58123 -11.26552  -1.38661  -0.88051  -0.71113
 Alpha  occ. eigenvalues --   -0.62120  -0.55100  -0.51944  -0.05154
 Alpha virt. eigenvalues --    0.05673   0.06787   0.07345   0.08423   0.15323
 Alpha virt. eigenvalues --    0.16173   0.18326   0.20623   0.23483   0.24547
 Alpha virt. eigenvalues --    0.28614   0.32103   0.37347   0.42609   0.44127

 Mulliken charges and spin densities:
               1          2
     1  C   -0.047066   0.903708
     2  O   -0.577253   0.050331
     3  H    0.133513   0.020338
     4  H    0.097384   0.024825
     5  H    0.393423   0.000798
 Sum of Mulliken charges =  -0.00000   1.00000

 Dipole moment (field-independent basis, Debye):
    X=             -0.2986    Y=              1.5580    Z=              0.1843  Tot=              1.5970
 Quadrupole moment (field-independent basis, Debye-Ang):
   XX=            -11.8046   YY=            -10.9371   ZZ=            -14.2669
   XY=              2.2225   XZ=             -0.5969   YZ=             -0.0280

 Normal termination of Gaussian 16 at Fri Sep 29 16:27:09 2023.
