 Gaussian 16, Revision B.01,
 Gaussian 16:  ES64L-G16RevB.01 20-Dec-2017

 ---------------------------
 # b3lyp/gen opt=calcfc freq
 ---------------------------

 --------------------------------
 hydroperoxymethyl, B3LYP/pcseg-2
 --------------------------------
 Symbolic Z-matrix:
 Charge =  0 Multiplicity = 2

 SCF Done:  E(UB3LYP) =  -190.329880658     A.U. after   23 cycles
 SCF Done:  E(UB3LYP) =  -190.329891522     A.U. after   18 cycles
 SCF Done:  E(UB3LYP) =  -190.329917972     A.U. after   18 cycles
 SCF Done:  E(UB3LYP) =  -190.329921306     A.U. after   16 cycles
 SCF Done:  E(UB3LYP) =  -190.329921554     A.U. after   14 cycles
 SCF Done:  E(UB3LYP) =  -190.329921596     A.U. after   14 cycles
 Optimization completed.
    -- Stationary point found.
 Normal termination of Gaussian 16 at Tue Jul 19 09:53:02 2022.

 ------------------------------------------------------------------
 #N Geom=AllCheck Guess=TCheck SCRF=Check GenChk UB3LYP/ChkBas Freq
 ------------------------------------------------------------------

 Structure from the checkpoint file:  "/home/irikura/scratch/gau/Gau-322436.chk"
 --------------------------------
 hydroperoxymethyl, B3LYP/pcseg-2
 --------------------------------
 Charge =  0 Multiplicity = 2

                         Standard orientation:
 ---------------------------------------------------------------------
 Center     Atomic      Atomic             Coordinates (Angstroms)
 Number     Number       Type             X           Y           Z
 ---------------------------------------------------------------------
      1          6           0        1.232477    0.384535   -0.000001
      2          8           0        0.601676   -0.638912   -0.000000
      3          1           0        0.740224    1.368374   -0.000010
      4          1           0        2.336285    0.372285    0.000008
      5          8           0       -1.677958    0.224018    0.000002
      6          1           0       -1.861119   -0.728719   -0.000011
 ---------------------------------------------------------------------

 SCF Done:  E(UB3LYP) =  -190.329921596     A.U. after    1 cycles

 The electronic state is 2-A.
 Alpha  occ. eigenvalues --  -19.16708 -19.16542 -10.28634  -1.08910  -0.98912
 Alpha  occ. eigenvalues --   -0.65289  -0.52158  -0.48147  -0.45369  -0.42646
 Alpha  occ. eigenvalues --   -0.38576  -0.32066  -0.29211
 Alpha virt. eigenvalues --   -0.07118   0.01886   0.03216   0.07122   0.11209
 Alpha virt. eigenvalues --    0.16245   0.19465   0.26413   0.29559   0.30391
 Alpha virt. eigenvalues --    0.32938   0.33316   0.34954   0.39913   0.42192

  Beta  occ. eigenvalues --  -19.16399 -19.14018 -10.28660  -1.08386  -0.92354
  Beta  occ. eigenvalues --   -0.65161  -0.51605  -0.47677  -0.42996  -0.42424
  Beta  occ. eigenvalues --   -0.29637  -0.29239
  Beta virt. eigenvalues --   -0.14437  -0.07037   0.01980   0.03576   0.07172
  Beta virt. eigenvalues --    0.11524   0.16238   0.19512   0.26717   0.30457
  Beta virt. eigenvalues --    0.30928   0.33162   0.33598   0.35490   0.41023

 Mulliken charges and spin densities:
               1          2
     1  C    0.319937  -0.013945
     2  O   -0.336746   0.072956
     3  H    0.049259   0.008734
     4  H    0.033146   0.004731
     5  O   -0.282463   0.940912
     6  H    0.216867  -0.013388
 Sum of Mulliken charges =   0.00000   1.00000

 Dipole moment (field-independent basis, Debye):
    X=              1.8084    Y=              0.3968    Z=             -0.0000  Tot=              1.8514
 Quadrupole moment (field-independent basis, Debye-Ang):
   XX=            -14.6331   YY=            -17.3922   ZZ=            -18.5505
   XY=              4.8864   XZ=              0.0000   YZ=              0.0000

  Exact polarizability:  43.712   2.187  25.617   0.000  -0.000  15.298
 Approx polarizability:  46.748   3.023  38.558   0.000   0.000  19.454

                      1                      2                      3
                      A                      A                      A
 Frequencies --     83.6037               110.2548               181.1675
 Red. masses --      1.0954                 5.3203                 4.5803
 Frc consts  --      0.0045                 0.0381                 0.0886
 IR Inten    --    123.0855                10.6723                45.5719

                      4                      5                      6
                      A                      A                      A
 Frequencies --    181.3979               374.0734              1208.0257
 Red. masses --      1.0770                 1.0610                 1.3626
 Frc consts  --      0.0209                 0.0875                 1.1716
 IR Inten    --     25.3674                77.2040                 4.5972

                      7                      8                      9
                      A                      A                      A
 Frequencies --   1260.9152              1520.2612              1799.3663
 Red. masses --      1.3376                 1.1000                 7.7192
 Frc consts  --      1.2530                 1.4979                14.7253
 IR Inten    --      5.0049                11.4258               126.1700

                     10                     11                     12
                      A                      A                      A
 Frequencies --   2918.5598              3005.6497              3751.4682
 Red. masses --      1.0485                 1.1164                 1.0671
 Frc consts  --      5.2619                 5.9419                 8.8486
 IR Inten    --     99.3748                40.9821                31.4682

 - Thermochemistry -
 -------------------
 Temperature   298.150 Kelvin.  Pressure   1.00000 Atm.
 Atom     1 has atomic number  6 and mass  12.00000

 Molecular mass:    47.01330 amu.
 Principal axes and moments of inertia in atomic units:
                           1         2         3
     Eigenvalues --    41.03486 281.12210 322.15695
           X            0.99884   0.04818   0.00000
           Y           -0.04818   0.99884  -0.00000
           Z           -0.00000   0.00000   1.00000
 This molecule is an asymmetric top.
 Rotational symmetry number  1.
 Rotational temperatures (Kelvin)      2.11074     0.30810     0.26886
 Rotational constants (GHZ):          43.98069     6.41978     5.60206
 Zero-point vibrational energy      98062.3 (Joules/Mol)
                                   23.43746 (Kcal/Mol)
 Warning -- explicit consideration of   5 degrees of freedom as
           vibrations may cause significant error
 Vibrational temperatures:    120.29   158.63   260.66   260.99   538.21
          (Kelvin)           1738.08  1814.18  2187.32  2588.89  4199.16
                             4324.46  5397.53

 Zero-point correction=                           0.037350 (Hartree/Particle)
 Thermal correction to Energy=                    0.043216
 Thermal correction to Enthalpy=                  0.044160
 Thermal correction to Gibbs Free Energy=         0.008749
 Sum of electronic and zero-point Energies=           -190.292572
 Sum of electronic and thermal Energies=              -190.286705
 Sum of electronic and thermal Enthalpies=            -190.285761
 Sum of electronic and thermal Free Energies=         -190.321172

                     E (Thermal)             CV                S
                      KCal/Mol        Cal/Mol-Kelvin    Cal/Mol-Kelvin
 Total                   27.119             15.582             74.529
 Electronic               0.000              0.000              1.377
 Translational            0.889              2.981             37.468
 Rotational               0.889              2.981             22.834
 Vibrational             25.341              9.621             12.848
 Vibration     1          0.600              1.960              3.804
 Vibration     2          0.606              1.941              3.264
 Vibration     3          0.630              1.865              2.316
 Vibration     4          0.630              1.865              2.314
 Vibration     5          0.745              1.525              1.063

 Optimization completed.
    -- Stationary point found.
 Normal termination of Gaussian 16 at Tue Jul 19 09:53:23 2022.
