 Gaussian 16, Revision B.01,
 Gaussian 16:  ES64L-G16RevB.01 20-Dec-2017

 --------------------
 # b3lyp/gen opt freq
 --------------------

 ----------------------------
 hydroxymethyl, B3LYP/pcseg-2
 ----------------------------
 Symbolic Z-matrix:
 Charge =  0 Multiplicity = 2

 SCF Done:  E(UB3LYP) =  -115.116128689     A.U. after   13 cycles
 SCF Done:  E(UB3LYP) =  -115.116247142     A.U. after   10 cycles
 SCF Done:  E(UB3LYP) =  -115.116271554     A.U. after    9 cycles
 SCF Done:  E(UB3LYP) =  -115.116276135     A.U. after    9 cycles
 SCF Done:  E(UB3LYP) =  -115.116277638     A.U. after    9 cycles
 Optimization completed.
    -- Stationary point found.
 Normal termination of Gaussian 16 at Wed Jun 15 10:27:49 2022.

 ------------------------------------------------------------------
 #N Geom=AllCheck Guess=TCheck SCRF=Check GenChk UB3LYP/ChkBas Freq
 ------------------------------------------------------------------

 Structure from the checkpoint file:  "/wrk/irikura/Gau-3102.chk"
 ----------------------------
 hydroxymethyl, B3LYP/pcseg-2
 ----------------------------
 Charge =  0 Multiplicity = 2

                         Standard orientation:
 ---------------------------------------------------------------------
 Center     Atomic      Atomic             Coordinates (Angstroms)
 Number     Number       Type             X           Y           Z
 ---------------------------------------------------------------------
      1          6           0       -0.684188    0.027583   -0.057847
      2          8           0        0.669485   -0.125548    0.019940
      3          1           0       -1.235869   -0.885407    0.091443
      4          1           0       -1.116969    0.995427    0.151952
      5          1           0        1.102082    0.728861   -0.055829
 ---------------------------------------------------------------------

 SCF Done:  E(UB3LYP) =  -115.116277638     A.U. after    1 cycles

 The electronic state is 2-A.
 Alpha  occ. eigenvalues --  -19.16473 -10.21990  -1.06667  -0.67985  -0.53856
 Alpha  occ. eigenvalues --   -0.46072  -0.40991  -0.36607  -0.18308
 Alpha virt. eigenvalues --    0.00291   0.04240   0.07811   0.13181   0.17114
 Alpha virt. eigenvalues --    0.21133   0.23771   0.28344   0.31377   0.33734
 Alpha virt. eigenvalues --    0.37205   0.38056   0.38763   0.45953   0.65518

  Beta  occ. eigenvalues --  -19.15896 -10.20631  -1.05443  -0.65472  -0.52801
  Beta  occ. eigenvalues --   -0.45219  -0.37182  -0.35463
  Beta virt. eigenvalues --   -0.04030   0.00424   0.04643   0.07941   0.13556
  Beta virt. eigenvalues --    0.19949   0.22171   0.24830   0.28656   0.32727
  Beta virt. eigenvalues --    0.34767   0.37783   0.38793   0.39532   0.46282

 Mulliken charges and spin densities:
               1          2
     1  C    0.036883   0.937309
     2  O   -0.325238   0.120181
     3  H    0.054075  -0.028336
     4  H    0.031556  -0.025078
     5  H    0.202724  -0.004076
 Sum of Mulliken charges =  -0.00000   1.00000

 Dipole moment (field-independent basis, Debye):
    X=              0.0413    Y=              1.5082    Z=              0.2310  Tot=              1.5264
 Quadrupole moment (field-independent basis, Debye-Ang):
   XX=            -11.8729   YY=            -11.1971   ZZ=            -14.5884
   XY=              2.1736   XZ=             -0.6033   YZ=             -0.0142

  Exact polarizability:  21.446   0.491  17.664  -0.032  -0.011  15.727
 Approx polarizability:  26.263   0.490  22.510   0.006  -0.136  18.744

                      1                      2                      3
                      A                      A                      A
 Frequencies --    413.2478               527.9013              1053.0816
 Red. masses --      1.1543                 1.1985                 1.0806
 Frc consts  --      0.1161                 0.1968                 0.7060
 IR Inten    --     30.3057               129.0912                48.3290

                      4                      5                      6
                      A                      A                      A
 Frequencies --   1201.3632              1356.9754              1484.3256
 Red. masses --      5.2624                 1.2809                 1.1522
 Frc consts  --      4.4749                 1.3897                 1.4956
 IR Inten    --    106.8419                28.3664                 7.9445

                      7                      8                      9
                      A                      A                      A
 Frequencies --   3136.8344              3279.6219              3834.8974
 Red. masses --      1.0459                 1.1245                 1.0665
 Frc consts  --      6.0634                 7.1261                 9.2410
 IR Inten    --     19.0656                10.4435                60.3144

 - Thermochemistry -
 -------------------
 Temperature   298.150 Kelvin.  Pressure   1.00000 Atm.
 Atom     1 has atomic number  6 and mass  12.00000

 Molecular mass:    31.01839 amu.
 Principal axes and moments of inertia in atomic units:
                           1         2         3
     Eigenvalues --     9.27357  60.26915  69.02281
           X            0.99841   0.05249  -0.02057
           Y           -0.05234   0.99860   0.00763
           Z            0.02094  -0.00654   0.99976
 This molecule is an asymmetric top.
 Rotational symmetry number  1.
 Rotational temperatures (Kelvin)      9.33987     1.43712     1.25486
 Rotational constants (GHZ):         194.61126    29.94469    26.14703
 Zero-point vibrational energy      97425.4 (Joules/Mol)
                                   23.28522 (Kcal/Mol)
 Warning -- explicit consideration of   2 degrees of freedom as
           vibrations may cause significant error
 Vibrational temperatures:    594.57   759.53  1515.15  1728.49  1952.38
          (Kelvin)           2135.61  4513.21  4718.64  5517.56

 Zero-point correction=                           0.037107 (Hartree/Particle)
 Thermal correction to Energy=                    0.040502
 Thermal correction to Enthalpy=                  0.041446
 Thermal correction to Gibbs Free Energy=         0.014097
 Sum of electronic and zero-point Energies=           -115.079170
 Sum of electronic and thermal Energies=              -115.075776
 Sum of electronic and thermal Enthalpies=            -115.074832
 Sum of electronic and thermal Free Energies=         -115.102180

                     E (Thermal)             CV                S
                      KCal/Mol        Cal/Mol-Kelvin    Cal/Mol-Kelvin
 Total                   25.415              9.320             57.560
 Electronic               0.000              0.000              1.377
 Translational            0.889              2.981             36.229
 Rotational               0.889              2.981             18.296
 Vibrational             23.638              3.358              1.658
 Vibration     1          0.777              1.441              0.915
 Vibration     2          0.883              1.188              0.592

 Optimization completed.
    -- Stationary point found.
 Normal termination of Gaussian 16 at Wed Jun 15 10:28:31 2022.
