 Gaussian 16, Revision B.01,

 ---------------------------------------
 # b3lyp/gen opt freq CPHF(Grid=OneStep)
 ---------------------------------------

 --------------------------------
 hydroperoxymethyl, B3LYP/pcseg-2
 --------------------------------
 Symbolic Z-matrix:
 Charge =  0 Multiplicity = 2

 SCF Done:  E(UB3LYP) =  -190.329921587     A.U. after   20 cycles
 Optimization completed.
    -- Stationary point found.
 Normal termination of Gaussian 16 at Sat Sep 30 10:54:21 2023.

 ------------------------------------------------------------------
 #N Geom=AllCheck Guess=TCheck SCRF=Check GenChk UB3LYP/ChkBas Freq
 ------------------------------------------------------------------

 Structure from the checkpoint file:  "ch2ooh.chk"
 --------------------------------
 hydroperoxymethyl, B3LYP/pcseg-2
 --------------------------------
 Charge =  0 Multiplicity = 2

 SCF Done:  E(UB3LYP) =  -190.329921587     A.U. after    1 cycles

  Exact polarizability:  43.689   2.187  25.619  -0.001  -0.000  15.296
 Approx polarizability:  46.722   3.025  38.557  -0.000  -0.001  19.453

                      1                      2                      3
                      A                      A                      A
 Frequencies --     84.4038               109.8217               180.8618
 Red. masses --      1.0950                 5.3356                 4.5691
 Frc consts  --      0.0046                 0.0379                 0.0881
 IR Inten    --    122.3500                10.6323                45.4791

                      4                      5                      6
                      A                      A                      A
 Frequencies --    181.5117               373.4828              1208.0336
 Red. masses --      1.0775                 1.0609                 1.3626
 Frc consts  --      0.0209                 0.0872                 1.1716
 IR Inten    --     26.0304                77.3924                 4.5951

                      7                      8                      9
                      A                      A                      A
 Frequencies --   1260.9466              1520.3012              1799.3836
 Red. masses --      1.3376                 1.1000                 7.7187
 Frc consts  --      1.2530                 1.4980                14.7246
 IR Inten    --      5.0055                11.4210               126.2031

                     10                     11                     12
                      A                      A                      A
 Frequencies --   2918.5351              3005.5712              3751.4715
 Red. masses --      1.0485                 1.1164                 1.0671
 Frc consts  --      5.2617                 5.9417                 8.8486
 IR Inten    --     99.3743                41.0337                31.4373

 - Thermochemistry -
 -------------------
 Temperature   298.150 Kelvin.  Pressure   1.00000 Atm.
 Atom     1 has atomic number  6 and mass  12.00000

 Molecular mass:    47.01330 amu.
 Principal axes and moments of inertia in atomic units:
                           1         2         3
     Eigenvalues --    41.03570 281.27896 322.31466
           X            0.99884   0.04816  -0.00001
           Y           -0.04816   0.99884  -0.00000
           Z            0.00001   0.00001   1.00000
 This molecule is an asymmetric top.
 Rotational symmetry number  1.
 Rotational temperatures (Kelvin)      2.11070     0.30793     0.26872
 Rotational constants (GHZ):          43.97978     6.41620     5.59931
 Zero-point vibrational energy      98059.8 (Joules/Mol)
                                   23.43686 (Kcal/Mol)
 Warning -- explicit consideration of   5 degrees of freedom as
           vibrations may cause significant error
 Vibrational temperatures:    121.44   158.01   260.22   261.15   537.36
          (Kelvin)           1738.09  1814.22  2187.37  2588.91  4199.12
                             4324.35  5397.53

 Zero-point correction=                           0.037349 (Hartree/Particle)
 Thermal correction to Energy=                    0.043215
 Thermal correction to Enthalpy=                  0.044160
 Thermal correction to Gibbs Free Energy=         0.008751
 Sum of electronic and zero-point Energies=           -190.292573
 Sum of electronic and thermal Energies=              -190.286706
 Sum of electronic and thermal Enthalpies=            -190.285762
 Sum of electronic and thermal Free Energies=         -190.321170

                     E (Thermal)             CV                S
                      KCal/Mol        Cal/Mol-Kelvin    Cal/Mol-Kelvin
 Total                   27.118             15.584             74.523
 Electronic               0.000              0.000              1.377
 Translational            0.889              2.981             37.468
 Rotational               0.889              2.981             22.835
 Vibrational             25.341              9.622             12.842
 Vibration     1          0.601              1.960              3.786
 Vibration     2          0.606              1.941              3.272
 Vibration     3          0.630              1.866              2.319
 Vibration     4          0.630              1.865              2.313
 Vibration     5          0.745              1.527              1.065

 Optimization completed.
    -- Stationary point found.
 Normal termination of Gaussian 16 at Sat Sep 30 10:56:21 2023.
 Gaussian 16:  ES64L-G16RevB.01 20-Dec-2017

 ---------------------------------
 # rohf/gen geom=check guess=check
 ---------------------------------

 -----------------------------------
 hydroperoxymethyl, ROHF/cc-pVTZ-F12
 -----------------------------------
 Structure from the checkpoint file:  "ch2ooh.chk"
 Charge =  0 Multiplicity = 2

                         Standard orientation:
 ---------------------------------------------------------------------
 Center     Atomic      Atomic             Coordinates (Angstroms)
 Number     Number       Type             X           Y           Z
 ---------------------------------------------------------------------
      1          6           0        1.232718    0.384590    0.000025
      2          8           0        0.601959   -0.638883   -0.000017
      3          1           0        0.740432    1.368419    0.000258
      4          1           0        2.336528    0.372406   -0.000168
      5          8           0       -1.678567    0.223966   -0.000067
      6          1           0       -1.860404   -0.729026    0.000431
 ---------------------------------------------------------------------

 SCF Done:  E(ROHF) =  -189.341340276     A.U. after   17 cycles

 The electronic state is 2-A.
 Alpha  occ. eigenvalues --  -20.58869 -20.57447 -11.34008  -1.41016  -1.26156
 Alpha  occ. eigenvalues --   -0.86941  -0.69747  -0.65708  -0.63184  -0.54329
 Alpha  occ. eigenvalues --   -0.50679  -0.44604  -0.14328
 Alpha virt. eigenvalues --    0.05307   0.06061   0.06805   0.07344   0.12893
 Alpha virt. eigenvalues --    0.13276   0.13998   0.17013   0.17437   0.20135
 Alpha virt. eigenvalues --    0.20824   0.21765   0.24120   0.25668   0.29771

 Mulliken charges and spin densities:
               1          2
     1  C    0.214642   0.000520
     2  O   -0.454413   0.002772
     3  H    0.123254   0.000584
     4  H    0.124143   0.000159
     5  O   -0.415670   0.980987
     6  H    0.408044   0.014979
 Sum of Mulliken charges =  -0.00000   1.00000

 Dipole moment (field-independent basis, Debye):
    X=              1.3181    Y=              0.7249    Z=              0.0010  Tot=              1.5043
 Quadrupole moment (field-independent basis, Debye-Ang):
   XX=            -13.4416   YY=            -17.1850   ZZ=            -18.4277
   XY=              5.2675   XZ=             -0.0019   YZ=             -0.0009

 Normal termination of Gaussian 16 at Sat Sep 30 10:57:01 2023.
