 Gaussian 16, Revision B.01,

 ---------------------------------------
 # b3lyp/gen opt freq CPHF(Grid=OneStep)
 ---------------------------------------

 --------------------------
 methanediol, B3LYP/pcseg-2
 --------------------------
 Symbolic Z-matrix:
 Charge =  0 Multiplicity = 1

 SCF Done:  E(RB3LYP) =  -191.041769289     A.U. after   11 cycles
 Optimization completed.
    -- Stationary point found.
 Normal termination of Gaussian 16 at Sat Sep 30 20:50:08 2023.

 ------------------------------------------------------------------
 #N Geom=AllCheck Guess=TCheck SCRF=Check GenChk RB3LYP/ChkBas Freq
 ------------------------------------------------------------------

 Structure from the checkpoint file:  "ch2ohoh.chk"
 --------------------------
 methanediol, B3LYP/pcseg-2
 --------------------------
 Charge =  0 Multiplicity = 1

 SCF Done:  E(RB3LYP) =  -191.041769289     A.U. after    1 cycles

  Exact polarizability:  22.526   1.056  25.105   0.000  -0.000  23.702
 Approx polarizability:  30.257   0.633  31.431   0.000  -0.000  30.094

                      1                      2                      3
                      B                      A                      A
 Frequencies --    374.7458               383.9785               558.8368
 Red. masses --      1.1868                 1.1395                 3.7534
 Frc consts  --      0.0982                 0.0990                 0.6906
 IR Inten    --    170.2317                61.0967                67.3722

                      4                      5                      6
                      B                      A                      B
 Frequencies --   1008.6196              1033.1112              1049.4788
 Red. masses --      1.1958                 5.1052                 6.5513
 Frc consts  --      0.7167                 3.2104                 4.2513
 IR Inten    --      5.4091                96.7496               284.3319

                      7                      8                      9
                      A                      B                      A
 Frequencies --   1204.0666              1369.9100              1390.1683
 Red. masses --      1.1301                 1.3839                 1.1369
 Frc consts  --      0.9653                 1.5301                 1.2945
 IR Inten    --      1.9649                31.3400                 3.3420

                     10                     11                     12
                      B                      A                      A
 Frequencies --   1445.4799              1526.6757              3035.1287
 Red. masses --      1.1578                 1.0929                 1.0531
 Frc consts  --      1.4253                 1.5008                 5.7156
 IR Inten    --     53.5299                 0.3506                57.6296

                     13                     14                     15
                      B                      B                      A
 Frequencies --   3082.9121              3806.9227              3807.5983
 Red. masses --      1.1149                 1.0660                 1.0656
 Frc consts  --      6.2430                 9.1021                 9.1026
 IR Inten    --     41.6280                43.8306                23.5196

 - Thermochemistry -
 -------------------
 Temperature   298.150 Kelvin.  Pressure   1.00000 Atm.
 Atom     1 has atomic number  6 and mass  12.00000

 Molecular mass:    48.02113 amu.
 Principal axes and moments of inertia in atomic units:
                           1         2         3
     Eigenvalues --    42.94490 178.04399 200.63356
           X            0.04147   0.00000   0.99914
           Y            0.99914   0.00000  -0.04147
           Z           -0.00000   1.00000  -0.00000
 This molecule is an asymmetric top.
 Rotational symmetry number  2.
 Rotational temperatures (Kelvin)      2.01686     0.48647     0.43170
 Rotational constants (GHZ):          42.02457    10.13649     8.99521
 Zero-point vibrational energy     149997.6 (Joules/Mol)
                                   35.85028 (Kcal/Mol)
 Warning -- explicit consideration of   3 degrees of freedom as
           vibrations may cause significant error
 Vibrational temperatures:    539.18   552.46   804.04  1451.18  1486.42
          (Kelvin)           1509.97  1732.38  1970.99  2000.14  2079.72
                             2196.55  4366.87  4435.62  5477.31  5478.28

 Zero-point correction=                           0.057131 (Hartree/Particle)
 Thermal correction to Energy=                    0.060949
 Thermal correction to Enthalpy=                  0.061894
 Thermal correction to Gibbs Free Energy=         0.032876
 Sum of electronic and zero-point Energies=           -190.984638
 Sum of electronic and thermal Energies=              -190.980820
 Sum of electronic and thermal Enthalpies=            -190.979876
 Sum of electronic and thermal Free Energies=         -191.008894

                     E (Thermal)             CV                S
                      KCal/Mol        Cal/Mol-Kelvin    Cal/Mol-Kelvin
 Total                   38.246             11.734             61.073
 Electronic               0.000              0.000              0.000
 Translational            0.889              2.981             37.531
 Rotational               0.889              2.981             20.578
 Vibrational             36.469              5.773              2.964
 Vibration     1          0.746              1.524              1.060
 Vibration     2          0.753              1.504              1.023
 Vibration     3          0.914              1.120              0.526

 Optimization completed.
    -- Stationary point found.
 Normal termination of Gaussian 16 at Sat Sep 30 20:51:43 2023.
 Gaussian 16:  ES64L-G16RevB.01 20-Dec-2017

 ---------------------------------
 # rohf/gen geom=check guess=check
 ---------------------------------

 -----------------------------
 methanediol, ROHF/cc-pVTZ-F12
 -----------------------------
 Structure from the checkpoint file:  "ch2ohoh.chk"
 Charge =  0 Multiplicity = 1

                         Standard orientation:
 ---------------------------------------------------------------------
 Center     Atomic      Atomic             Coordinates (Angstroms)
 Number     Number       Type             X           Y           Z
 ---------------------------------------------------------------------
      1          6           0        0.000000   -0.000000    0.529264
      2          8           0       -0.000000    1.173194   -0.247374
      3          8           0       -0.000000   -1.173194   -0.247374
      4          1           0        0.890696   -0.071811    1.155563
      5          1           0       -0.890696    0.071811    1.155563
      6          1           0        0.811349    1.197558   -0.764365
      7          1           0       -0.811349   -1.197558   -0.764365
 ---------------------------------------------------------------------

 SCF Done:  E(ROHF) =  -190.003663842     A.U. after   10 cycles

 The electronic state is 1-A.
 Alpha  occ. eigenvalues --  -20.56881 -20.56879 -11.33403  -1.41152  -1.33812
 Alpha  occ. eigenvalues --   -0.91661  -0.75251  -0.66021  -0.64491  -0.61689
 Alpha  occ. eigenvalues --   -0.50350  -0.49966  -0.47008
 Alpha virt. eigenvalues --    0.05686   0.06125   0.06572   0.07355   0.14282
 Alpha virt. eigenvalues --    0.15254   0.16389   0.16545   0.16859   0.21847
 Alpha virt. eigenvalues --    0.23135   0.23810   0.24767   0.25645   0.29298

 Mulliken charges and spin densities:
               1          2
     1  C    0.337814   0.000000
     2  O   -0.665454   0.000000
     3  O   -0.665454   0.000000
     4  H    0.102273   0.000000
     5  H    0.102273   0.000000
     6  H    0.394274   0.000000
     7  H    0.394274   0.000000
 Sum of Mulliken charges =  -0.00000   0.00000

 Dipole moment (field-independent basis, Debye):
    X=              0.0000    Y=              0.0000    Z=             -0.0187  Tot=              0.0187
 Quadrupole moment (field-independent basis, Debye-Ang):
   XX=            -15.4936   YY=            -22.7238   ZZ=            -16.4329
   XY=              3.6543   XZ=             -0.0000   YZ=              0.0000

 Normal termination of Gaussian 16 at Sat Sep 30 20:52:03 2023.
