 Gaussian 16, Revision B.01,

 ---------------------------------------
 # b3lyp/gen opt freq CPHF(Grid=OneStep)
 ---------------------------------------

 ------------------------------------
 dioxymethyl (H2C-O-O), B3LYP/pcseg-2
 ------------------------------------
 Symbolic Z-matrix:
 Charge =  0 Multiplicity = 1

 SCF Done:  E(RB3LYP) =  -189.665628648     A.U. after   14 cycles
 Optimization completed.
    -- Stationary point found.
 Normal termination of Gaussian 16 at Sat Sep 30 01:09:27 2023.

 ------------------------------------------------------------------
 #N Geom=AllCheck Guess=TCheck SCRF=Check GenChk RB3LYP/ChkBas Freq
 ------------------------------------------------------------------

 Structure from the checkpoint file:  "ch2oo.chk"
 ------------------------------------
 dioxymethyl (H2C-O-O), B3LYP/pcseg-2
 ------------------------------------
 Charge =  0 Multiplicity = 1

 SCF Done:  E(RB3LYP) =  -189.665628648     A.U. after    3 cycles

  Exact polarizability:  43.081  -0.009  18.630   0.000   0.000  13.293
 Approx polarizability:  93.367  -0.996  25.611   0.000   0.000  17.770

                      1                      2                      3
                     A'                     A"                     A'
 Frequencies --    529.3181               676.4714               918.5552
 Red. masses --      3.1221                 1.2263                 6.6187
 Frc consts  --      0.5154                 0.3306                 3.2903
 IR Inten    --      0.0676                 4.7480               106.2966

                      4                      5                      6
                     A"                     A'                     A'
 Frequencies --    943.6192              1244.6799              1402.1889
 Red. masses --      1.3676                 1.5983                 1.5923
 Frc consts  --      0.7175                 1.4589                 1.8445
 IR Inten    --     35.3970                17.7875                16.8663

                      7                      8                      9
                     A'                     A'                     A'
 Frequencies --   1541.5615              3119.0835              3271.3143
 Red. masses --      2.5822                 1.0453                 1.1282
 Frc consts  --      3.6155                 5.9914                 7.1134
 IR Inten    --     30.1272                 3.0459                 0.4787

 - Thermochemistry -
 -------------------
 Temperature   298.150 Kelvin.  Pressure   1.00000 Atm.
 Atom     1 has atomic number  8 and mass  15.99491

 Molecular mass:    46.00548 amu.
 Principal axes and moments of inertia in atomic units:
                           1         2         3
     Eigenvalues --    22.19688 145.54661 167.74349
           X            0.99977  -0.02122   0.00000
           Y            0.02122   0.99977   0.00000
           Z            0.00000  -0.00000   1.00000
 This molecule is an asymmetric top.
 Rotational symmetry number  1.
 Rotational temperatures (Kelvin)      3.90208     0.59509     0.51635
 Rotational constants (GHZ):          81.30608    12.39975    10.75893
 Zero-point vibrational energy      81625.9 (Joules/Mol)
                                   19.50907 (Kcal/Mol)
 Warning -- explicit consideration of   1 degrees of freedom as
           vibrations may cause significant error
 Vibrational temperatures:    761.57   973.29  1321.60  1357.66  1790.82
          (Kelvin)           2017.44  2217.96  4487.67  4706.69

 Zero-point correction=                           0.031090 (Hartree/Particle)
 Thermal correction to Energy=                    0.034370
 Thermal correction to Enthalpy=                  0.035314
 Thermal correction to Gibbs Free Energy=         0.007016
 Sum of electronic and zero-point Energies=           -189.634539
 Sum of electronic and thermal Energies=              -189.631259
 Sum of electronic and thermal Enthalpies=            -189.630315
 Sum of electronic and thermal Free Energies=         -189.658613

                     E (Thermal)             CV                S
                      KCal/Mol        Cal/Mol-Kelvin    Cal/Mol-Kelvin
 Total                   21.567              9.287             59.558
 Electronic               0.000              0.000              0.000
 Translational            0.889              2.981             37.404
 Rotational               0.889              2.981             20.921
 Vibrational             19.790              3.326              1.233
 Vibration     1          0.884              1.185              0.589

 Optimization completed.
    -- Stationary point found.
 Normal termination of Gaussian 16 at Sat Sep 30 01:10:15 2023.
 Gaussian 16:  ES64L-G16RevB.01 20-Dec-2017

 ---------------------------------
 # rohf/gen geom=check guess=check
 ---------------------------------

 ---------------------------------------
 dioxymethyl (H2C-O-O), ROHF/cc-pVTZ-F12
 ---------------------------------------
 Structure from the checkpoint file:  "ch2oo.chk"
 Charge =  0 Multiplicity = 1

                         Standard orientation:
 ---------------------------------------------------------------------
 Center     Atomic      Atomic             Coordinates (Angstroms)
 Number     Number       Type             X           Y           Z
 ---------------------------------------------------------------------
      1          8           0       -0.000000    0.457219    0.000000
      2          8           0       -1.178012   -0.198855   -0.000000
      3          6           0        1.070030   -0.196871    0.000000
      4          1           0        1.028946   -1.279648    0.000000
      5          1           0        1.974970    0.393966    0.000000
 ---------------------------------------------------------------------

 SCF Done:  E(ROHF) =  -188.644588082     A.U. after   13 cycles

 The electronic state is 1-A'.
 Alpha  occ. eigenvalues --  -20.72685 -20.52811 -11.39286  -1.56198  -1.20070
 Alpha  occ. eigenvalues --   -0.92134  -0.77155  -0.72209  -0.67096  -0.57915
 Alpha  occ. eigenvalues --   -0.42141  -0.39318
 Alpha virt. eigenvalues --    0.02514   0.03527   0.05323   0.08220   0.09253
 Alpha virt. eigenvalues --    0.13239   0.16636   0.17518   0.19176   0.19427
 Alpha virt. eigenvalues --    0.20798   0.21026   0.22988   0.26864   0.30103

 Mulliken charges and spin densities:
               1          2
     1  O   -0.043338   0.000000
     2  O   -0.527438   0.000000
     3  C    0.183371   0.000000
     4  H    0.195135   0.000000
     5  H    0.192270   0.000000
 Sum of Mulliken charges =  -0.00000   0.00000

 Dipole moment (field-independent basis, Debye):
    X=              5.7604    Y=             -0.5629    Z=              0.0000  Tot=              5.7879
 Quadrupole moment (field-independent basis, Debye-Ang):
   XX=            -16.2177   YY=            -16.3940   ZZ=            -17.3241
   XY=             -1.0314   XZ=             -0.0000   YZ=             -0.0000

 Normal termination of Gaussian 16 at Sat Sep 30 01:10:27 2023.
