 Gaussian 16, Revision B.01,
 Gaussian 16:  ES64L-G16RevB.01 20-Dec-2017

 --------------------
 # b3lyp/gen opt freq
 --------------------

 ------------------------------------
 dioxymethyl (H2C-O-O), B3LYP/pcseg-2
 ------------------------------------
 Symbolic Z-matrix:
 Charge =  0 Multiplicity = 1

 SCF Done:  E(RB3LYP) =  -189.651660156     A.U. after   14 cycles
 SCF Done:  E(RB3LYP) =  -189.664884469     A.U. after   13 cycles
 SCF Done:  E(RB3LYP) =  -189.665506693     A.U. after   12 cycles
 SCF Done:  E(RB3LYP) =  -189.665598422     A.U. after    9 cycles
 SCF Done:  E(RB3LYP) =  -189.665628648     A.U. after    9 cycles
 Optimization completed.
    -- Stationary point found.
 Normal termination of Gaussian 16 at Wed Jun 15 11:16:57 2022.

 ------------------------------------------------------------------
 #N Geom=AllCheck Guess=TCheck SCRF=Check GenChk RB3LYP/ChkBas Freq
 ------------------------------------------------------------------

 Structure from the checkpoint file:  "/wrk/irikura/Gau-9444.chk"
 ------------------------------------
 dioxymethyl (H2C-O-O), B3LYP/pcseg-2
 ------------------------------------
 Charge =  0 Multiplicity = 1

                         Standard orientation:
 ---------------------------------------------------------------------
 Center     Atomic      Atomic             Coordinates (Angstroms)
 Number     Number       Type             X           Y           Z
 ---------------------------------------------------------------------
      1          8           0        0.000000    0.457219   -0.000000
      2          8           0       -1.178012   -0.198855   -0.000000
      3          6           0        1.070030   -0.196871    0.000000
      4          1           0        1.028946   -1.279648    0.000000
      5          1           0        1.974970    0.393966    0.000000
 ---------------------------------------------------------------------

 SCF Done:  E(RB3LYP) =  -189.665628648     A.U. after    1 cycles

 The electronic state is 1-A'.
 Alpha  occ. eigenvalues --  -19.30106 -19.13572 -10.29556  -1.21794  -0.91909
 Alpha  occ. eigenvalues --   -0.67621  -0.56639  -0.54414  -0.51457  -0.42170
 Alpha  occ. eigenvalues --   -0.26659  -0.26159
 Alpha virt. eigenvalues --   -0.10914   0.01050   0.04345   0.06262   0.09995
 Alpha virt. eigenvalues --    0.15270   0.16791   0.23675   0.29451   0.32175
 Alpha virt. eigenvalues --    0.33876   0.36870   0.37683   0.39455   0.42010

 Mulliken charges:
               1
     1  O   -0.001191
     2  O   -0.393089
     3  C    0.239376
     4  H    0.080587
     5  H    0.074318
 Sum of Mulliken charges =  -0.00000

 Dipole moment (field-independent basis, Debye):
    X=              4.3233    Y=             -0.3261    Z=              0.0000  Tot=              4.3355
 Quadrupole moment (field-independent basis, Debye-Ang):
   XX=            -16.8737   YY=            -16.7247   ZZ=            -17.4928
   XY=             -0.5575   XZ=             -0.0000   YZ=              0.0000

  Exact polarizability:  43.081  -0.009  18.630  -0.000  -0.000  13.293
 Approx polarizability:  93.367  -0.996  25.611   0.000  -0.000  17.770

                      1                      2                      3
                     A'                     A"                     A'
 Frequencies --    529.3162               676.4796               918.5355
 Red. masses --      3.1221                 1.2263                 6.6191
 Frc consts  --      0.5154                 0.3306                 3.2903
 IR Inten    --      0.0676                 4.7485               106.3160

                      4                      5                      6
                     A"                     A'                     A'
 Frequencies --    943.6191              1244.6772              1402.1911
 Red. masses --      1.3676                 1.5983                 1.5922
 Frc consts  --      0.7175                 1.4589                 1.8445
 IR Inten    --     35.3973                17.7880                16.8657

                      7                      8                      9
                     A'                     A'                     A'
 Frequencies --   1541.5631              3119.0838              3271.3127
 Red. masses --      2.5823                 1.0453                 1.1282
 Frc consts  --      3.6156                 5.9914                 7.1134
 IR Inten    --     30.1270                 3.0468                 0.4782

 - Thermochemistry -
 -------------------
 Temperature   298.150 Kelvin.  Pressure   1.00000 Atm.
 Atom     1 has atomic number  8 and mass  15.99491

 Molecular mass:    46.00548 amu.
 Principal axes and moments of inertia in atomic units:
                           1         2         3
     Eigenvalues --    22.19688 145.54662 167.74350
           X            0.99977  -0.02122   0.00000
           Y            0.02122   0.99977   0.00000
           Z            0.00000  -0.00000   1.00000
 This molecule is an asymmetric top.
 Rotational symmetry number  1.
 Rotational temperatures (Kelvin)      3.90208     0.59509     0.51635
 Rotational constants (GHZ):          81.30607    12.39975    10.75893
 Zero-point vibrational energy      81625.9 (Joules/Mol)
                                   19.50905 (Kcal/Mol)
 Warning -- explicit consideration of   1 degrees of freedom as
           vibrations may cause significant error
 Vibrational temperatures:    761.57   973.30  1321.57  1357.66  1790.81
          (Kelvin)           2017.44  2217.97  4487.67  4706.69

 Zero-point correction=                           0.031090 (Hartree/Particle)
 Thermal correction to Energy=                    0.034370
 Thermal correction to Enthalpy=                  0.035314
 Thermal correction to Gibbs Free Energy=         0.007016
 Sum of electronic and zero-point Energies=           -189.634539
 Sum of electronic and thermal Energies=              -189.631259
 Sum of electronic and thermal Enthalpies=            -189.630315
 Sum of electronic and thermal Free Energies=         -189.658613

                     E (Thermal)             CV                S
                      KCal/Mol        Cal/Mol-Kelvin    Cal/Mol-Kelvin
 Total                   21.567              9.287             59.558
 Electronic               0.000              0.000              0.000
 Translational            0.889              2.981             37.404
 Rotational               0.889              2.981             20.921
 Vibrational             19.790              3.326              1.233
 Vibration     1          0.884              1.185              0.589

 Optimization completed.
    -- Stationary point found.
 Normal termination of Gaussian 16 at Wed Jun 15 11:17:28 2022.
