 Gaussian 16, Revision B.01,
 Gaussian 16:  ES64L-G16RevB.01 20-Dec-2017

 --------------------
 # b3lyp/gen opt freq
 --------------------

 --------------------------
 methanediol, B3LYP/pcseg-2
 --------------------------
 Symbolic Z-matrix:
 Charge =  0 Multiplicity = 1

 SCF Done:  E(RB3LYP) =  -191.041560846     A.U. after   11 cycles
 SCF Done:  E(RB3LYP) =  -191.041742876     A.U. after    8 cycles
 SCF Done:  E(RB3LYP) =  -191.041763248     A.U. after    8 cycles
 SCF Done:  E(RB3LYP) =  -191.041768508     A.U. after    8 cycles
 SCF Done:  E(RB3LYP) =  -191.041769289     A.U. after    7 cycles
 Optimization completed.
    -- Stationary point found.
 Normal termination of Gaussian 16 at Mon Jun 20 10:22:06 2022.

 ------------------------------------------------------------------
 #N Geom=AllCheck Guess=TCheck SCRF=Check GenChk RB3LYP/ChkBas Freq
 ------------------------------------------------------------------

 Structure from the checkpoint file:  "/wrk/irikura/Gau-6763.chk"
 --------------------------
 methanediol, B3LYP/pcseg-2
 --------------------------
 Charge =  0 Multiplicity = 1

                         Standard orientation:
 ---------------------------------------------------------------------
 Center     Atomic      Atomic             Coordinates (Angstroms)
 Number     Number       Type             X           Y           Z
 ---------------------------------------------------------------------
      1          6           0       -0.000000   -0.000000    0.529264
      2          8           0        0.000000    1.173194   -0.247374
      3          8           0       -0.000000   -1.173194   -0.247374
      4          1           0        0.890696   -0.071811    1.155563
      5          1           0       -0.890696    0.071811    1.155563
      6          1           0        0.811349    1.197558   -0.764365
      7          1           0       -0.811349   -1.197558   -0.764365
 ---------------------------------------------------------------------

 SCF Done:  E(RB3LYP) =  -191.041769289     A.U. after    1 cycles

 The electronic state is 1-A.
 Alpha  occ. eigenvalues --  -19.13780 -19.13780 -10.27442  -1.07129  -1.00723
 Alpha  occ. eigenvalues --   -0.68544  -0.56885  -0.48623  -0.46987  -0.42453
 Alpha  occ. eigenvalues --   -0.33914  -0.32617  -0.29928
 Alpha virt. eigenvalues --    0.00591   0.02842   0.04659   0.07770   0.12527
 Alpha virt. eigenvalues --    0.14133   0.22073   0.23925   0.28502   0.29613
 Alpha virt. eigenvalues --    0.30595   0.32285   0.33235   0.35296   0.37068

 Mulliken charges:
               1
     1  C    0.413389
     2  O   -0.410397
     3  O   -0.410397
     4  H    0.017090
     5  H    0.017090
     6  H    0.186613
     7  H    0.186613
 Sum of Mulliken charges =   0.00000

 Dipole moment (field-independent basis, Debye):
    X=             -0.0000    Y=              0.0000    Z=             -0.0893  Tot=              0.0893
 Quadrupole moment (field-independent basis, Debye-Ang):
   XX=            -15.9071   YY=            -22.7305   ZZ=            -16.7916
   XY=              3.5909   XZ=             -0.0000   YZ=             -0.0000

  Exact polarizability:  22.526   1.056  25.105   0.000  -0.000  23.702
 Approx polarizability:  30.257   0.633  31.431   0.000   0.000  30.094

                      1                      2                      3
                      B                      A                      A
 Frequencies --    374.7475               383.9718               558.8368
 Red. masses --      1.1868                 1.1395                 3.7534
 Frc consts  --      0.0982                 0.0990                 0.6906
 IR Inten    --    170.2303                61.0939                67.3731

                      4                      5                      6
                      B                      A                      B
 Frequencies --   1008.6207              1033.1131              1049.4770
 Red. masses --      1.1958                 5.1052                 6.5509
 Frc consts  --      0.7167                 3.2104                 4.2510
 IR Inten    --      5.4060                96.7464               284.3401

                      7                      8                      9
                      A                      B                      A
 Frequencies --   1204.0682              1369.9116              1390.1685
 Red. masses --      1.1301                 1.3839                 1.1369
 Frc consts  --      0.9653                 1.5301                 1.2945
 IR Inten    --      1.9652                31.3414                 3.3421

                     10                     11                     12
                      B                      A                      A
 Frequencies --   1445.4797              1526.6764              3035.1299
 Red. masses --      1.1578                 1.0929                 1.0531
 Frc consts  --      1.4253                 1.5008                 5.7156
 IR Inten    --     53.5311                 0.3505                57.6267

                     13                     14                     15
                      B                      B                      A
 Frequencies --   3082.9149              3806.9171              3807.5924
 Red. masses --      1.1149                 1.0660                 1.0656
 Frc consts  --      6.2430                 9.1021                 9.1026
 IR Inten    --     41.6319                43.8303                23.5201

 - Thermochemistry -
 -------------------
 Temperature   298.150 Kelvin.  Pressure   1.00000 Atm.
 Atom     1 has atomic number  6 and mass  12.00000

 Molecular mass:    48.02113 amu.
 Principal axes and moments of inertia in atomic units:
                           1         2         3
     Eigenvalues --    42.94489 178.04400 200.63355
           X            0.04147   0.00000   0.99914
           Y            0.99914   0.00000  -0.04147
           Z           -0.00000   1.00000  -0.00000
 This molecule is an asymmetric top.
 Rotational symmetry number  2.
 Rotational temperatures (Kelvin)      2.01686     0.48647     0.43170
 Rotational constants (GHZ):          42.02459    10.13649     8.99521
 Zero-point vibrational energy     149997.5 (Joules/Mol)
                                   35.85027 (Kcal/Mol)
 Warning -- explicit consideration of   3 degrees of freedom as
           vibrations may cause significant error
 Vibrational temperatures:    539.18   552.45   804.04  1451.18  1486.42
          (Kelvin)           1509.96  1732.39  1971.00  2000.14  2079.72
                             2196.55  4366.88  4435.63  5477.30  5478.28

 Zero-point correction=                           0.057131 (Hartree/Particle)
 Thermal correction to Energy=                    0.060949
 Thermal correction to Enthalpy=                  0.061894
 Thermal correction to Gibbs Free Energy=         0.032876
 Sum of electronic and zero-point Energies=           -190.984638
 Sum of electronic and thermal Energies=              -190.980820
 Sum of electronic and thermal Enthalpies=            -190.979876
 Sum of electronic and thermal Free Energies=         -191.008894

                     E (Thermal)             CV                S
                      KCal/Mol        Cal/Mol-Kelvin    Cal/Mol-Kelvin
 Total                   38.246             11.734             61.073
 Electronic               0.000              0.000              0.000
 Translational            0.889              2.981             37.531
 Rotational               0.889              2.981             20.578
 Vibrational             36.469              5.773              2.964
 Vibration     1          0.746              1.524              1.060
 Vibration     2          0.753              1.504              1.023
 Vibration     3          0.914              1.120              0.526

 Optimization completed.
    -- Stationary point found.
 Normal termination of Gaussian 16 at Mon Jun 20 10:22:32 2022.
