 Gaussian 16, Revision B.01,
 Gaussian 16:  ES64L-G16RevB.01 20-Dec-2017

 --------------------
 # b3lyp/gen opt freq
 --------------------

 ------------------
 CH3, B3LYP/pcseg-2
 ------------------
 Symbolic Z-matrix:
 Charge =  0 Multiplicity = 2

 SCF Done:  E(UB3LYP) =  -39.8463541583     A.U. after   10 cycles
 SCF Done:  E(UB3LYP) =  -39.8602633913     A.U. after    9 cycles
 SCF Done:  E(UB3LYP) =  -39.8603422222     A.U. after    7 cycles
 Optimization completed.
    -- Stationary point found.
 Normal termination of Gaussian 16 at Tue Jun 14 19:53:13 2022.

 ------------------------------------------------------------------
 #N Geom=AllCheck Guess=TCheck SCRF=Check GenChk UB3LYP/ChkBas Freq
 ------------------------------------------------------------------

 Structure from the checkpoint file:  "/wrk/irikura/Gau-7570.chk"
 ------------------
 CH3, B3LYP/pcseg-2
 ------------------
 Charge =  0 Multiplicity = 2

                         Standard orientation:
 ---------------------------------------------------------------------
 Center     Atomic      Atomic             Coordinates (Angstroms)
 Number     Number       Type             X           Y           Z
 ---------------------------------------------------------------------
      1          6           0        0.000000    0.000000    0.000000
      2          1           0        0.000000    1.077939    0.000000
      3          1           0        0.933522   -0.538969    0.000000
      4          1           0       -0.933522   -0.538969    0.000000
 ---------------------------------------------------------------------

 SCF Done:  E(UB3LYP) =  -39.8603422222     A.U. after    1 cycles

 The electronic state is 2-A2".
 Alpha  occ. eigenvalues --  -10.18578  -0.69050  -0.42638  -0.42638  -0.23753
 Alpha virt. eigenvalues --    0.02281   0.08294   0.08294   0.17173   0.17173
 Alpha virt. eigenvalues --    0.18002   0.24494   0.33775   0.36307   0.36307
 Alpha virt. eigenvalues --    0.67083   0.67083   0.89011   0.89011   0.93149

  Beta  occ. eigenvalues --  -10.17106  -0.65122  -0.41700  -0.41700
  Beta virt. eigenvalues --   -0.07880   0.02728   0.08365   0.08365   0.17272
  Beta virt. eigenvalues --    0.17272   0.22307   0.27051   0.35278   0.36881
  Beta virt. eigenvalues --    0.36881   0.69503   0.69503   0.89128   0.89128

 Mulliken charges and spin densities:
               1          2
     1  C   -0.182761   1.104339
     2  H    0.060920  -0.034780
     3  H    0.060920  -0.034780
     4  H    0.060920  -0.034780
 Sum of Mulliken charges =   0.00000   1.00000

 Dipole moment (field-independent basis, Debye):
    X=             -0.0000    Y=              0.0000    Z=              0.0000  Tot=              0.0000
 Quadrupole moment (field-independent basis, Debye-Ang):
   XX=             -7.3094   YY=             -7.3094   ZZ=             -9.1732
   XY=             -0.0000   XZ=             -0.0000   YZ=             -0.0000

  Exact polarizability:  13.942  -0.000  13.942   0.000   0.000  11.978
 Approx polarizability:  16.690  -0.000  16.690  -0.000  -0.000  13.582

                      1                      2                      3
                     A2"                    E'                     E'
 Frequencies --    544.0370              1408.3080              1408.3080
 Red. masses --      1.2356                 1.1022                 1.1022
 Frc consts  --      0.2155                 1.2880                 1.2880
 IR Inten    --     84.8392                 3.7300                 3.7300

                      4                      5                      6
                     A1'                    E'                     E'
 Frequencies --   3113.3576              3290.2804              3290.2807
 Red. masses --      1.0078                 1.1182                 1.1182
 Frc consts  --      5.7556                 7.1323                 7.1323
 IR Inten    --      0.0000                 4.3430                 4.3427

 - Thermochemistry -
 -------------------
 Temperature   298.150 Kelvin.  Pressure   1.00000 Atm.
 Atom     1 has atomic number  6 and mass  12.00000

 Molecular mass:    15.02348 amu.
 Principal axes and moments of inertia in atomic units:
                           1         2         3
     Eigenvalues --     6.27281   6.27281  12.54562
           X           -0.31623   0.94868   0.00000
           Y            0.94868   0.31623   0.00000
           Z           -0.00000   0.00000   1.00000
 This molecule is an oblate symmetric top.
 Rotational symmetry number  6.
 Rotational temperatures (Kelvin)     13.80783    13.80783     6.90392
 Rotational constants (GHZ):         287.70850   287.70850   143.85425
 Zero-point vibrational energy      78083.7 (Joules/Mol)
                                   18.66245 (Kcal/Mol)
 Warning -- explicit consideration of   1 degrees of freedom as
           vibrations may cause significant error
 Vibrational temperatures:    782.75  2026.24  2026.24  4479.43  4733.98
          (Kelvin)           4733.98

 Zero-point correction=                           0.029741 (Hartree/Particle)
 Thermal correction to Energy=                    0.032781
 Thermal correction to Enthalpy=                  0.033725
 Thermal correction to Gibbs Free Energy=         0.011660
 Sum of electronic and zero-point Energies=            -39.830602
 Sum of electronic and thermal Energies=               -39.827561
 Sum of electronic and thermal Enthalpies=             -39.826617
 Sum of electronic and thermal Free Energies=          -39.848683

                     E (Thermal)             CV                S
                      KCal/Mol        Cal/Mol-Kelvin    Cal/Mol-Kelvin
 Total                   20.570              7.320             46.441
 Electronic               0.000              0.000              1.377
 Translational            0.889              2.981             34.068
 Rotational               0.889              2.981             10.404
 Vibrational             18.793              1.359              0.591
 Vibration     1          0.899              1.153              0.557

 Optimization completed.
    -- Stationary point found.
 Normal termination of Gaussian 16 at Tue Jun 14 19:53:40 2022.
