 Gaussian 16, Revision B.01,

 ---------------------------------------
 # b3lyp/gen opt freq CPHF(Grid=OneStep)
 ---------------------------------------

 ----------------------------
 1-methylallyl, B3LYP/pcseg-2
 ----------------------------
 Symbolic Z-matrix:
 Charge =  0 Multiplicity = 2

 SCF Done:  E(UB3LYP) =  -156.647779969     A.U. after   15 cycles
 Optimization completed.
    -- Stationary point found.
 Normal termination of Gaussian 16 at Thu Sep 28 14:37:02 2023.

 ------------------------------------------------------------------
 #N Geom=AllCheck Guess=TCheck SCRF=Check GenChk UB3LYP/ChkBas Freq
 ------------------------------------------------------------------

 Structure from the checkpoint file:  "ch3chchch2.chk"
 ----------------------------
 1-methylallyl, B3LYP/pcseg-2
 ----------------------------
 Charge =  0 Multiplicity = 2

 SCF Done:  E(UB3LYP) =  -156.647779969     A.U. after    1 cycles

  Exact polarizability:  58.319 -16.617  65.889  -0.000   0.000  35.521
 Approx polarizability:  76.958 -19.420  90.699  -0.000  -0.000  50.220

                      1                      2                      3
                     A"                     A"                     A'
 Frequencies --    146.7654               216.2018               288.3480
 Red. masses --      1.1949                 2.2547                 2.2735
 Frc consts  --      0.0152                 0.0621                 0.1114
 IR Inten    --      0.8608                 1.8749                 0.2060

                      4                      5                      6
                     A'                     A"                     A"
 Frequencies --    508.1650               543.6530               742.4988
 Red. masses --      2.7130                 1.1577                 1.2364
 Frc consts  --      0.4128                 0.2016                 0.4016
 IR Inten    --      0.6516                 6.9695                 0.0490

                      7                      8                      9
                     A"                     A'                     A"
 Frequencies --    801.8642               883.0227               995.2120
 Red. masses --      1.4924                 1.7984                 1.1554
 Frc consts  --      0.5654                 0.8262                 0.6743
 IR Inten    --     55.3724                 6.5499                25.3296

                     10                     11                     12
                     A'                     A"                     A'
 Frequencies --    996.7460              1030.6614              1140.2726
 Red. masses --      1.2046                 1.4316                 2.3866
 Frc consts  --      0.7051                 0.8960                 1.8283
 IR Inten    --      4.4695                 2.6104                 0.9212

                     13                     14                     15
                     A'                     A'                     A'
 Frequencies --   1208.9472              1286.7732              1348.2322
 Red. masses --      1.8100                 2.1292                 1.3892
 Frc consts  --      1.5587                 2.0772                 1.4878
 IR Inten    --      1.0153                 2.0637                 1.2933

                     16                     17                     18
                     A'                     A"                     A'
 Frequencies --   1410.9830              1471.6705              1475.9862
 Red. masses --      1.2445                 1.0460                 1.1894
 Frc consts  --      1.4598                 1.3347                 1.5267
 IR Inten    --      1.2686                 6.7675                16.4971

                     19                     20                     21
                     A'                     A'                     A'
 Frequencies --   1512.4120              1527.7116              2998.9478
 Red. masses --      1.3261                 1.8958                 1.0385
 Frc consts  --      1.7872                 2.6068                 5.5031
 IR Inten    --      7.8215                 0.9708                33.1241

                     22                     23                     24
                     A"                     A'                     A'
 Frequencies --   3030.5795              3090.7557              3117.6506
 Red. masses --      1.0981                 1.0969                 1.0865
 Frc consts  --      5.9419                 6.1737                 6.2219
 IR Inten    --     19.2717                13.7859                 6.5330

                     25                     26                     27
                     A'                     A'                     A'
 Frequencies --   3137.5728              3146.2991              3240.3360
 Red. masses --      1.0846                 1.0570                 1.1161
 Frc consts  --      6.2907                 6.1651                 6.9046
 IR Inten    --     25.9682                13.9822                11.0039

 - Thermochemistry -
 -------------------
 Temperature   298.150 Kelvin.  Pressure   1.00000 Atm.
 Atom     1 has atomic number  6 and mass  12.00000

 Molecular mass:    55.05478 amu.
 Principal axes and moments of inertia in atomic units:
                           1         2         3
     Eigenvalues --    46.96840 449.74117 485.68392
           X           -0.65621   0.75458   0.00000
           Y            0.75458   0.65621   0.00000
           Z           -0.00000   0.00000   1.00000
 This molecule is an asymmetric top.
 Rotational symmetry number  1.
 Rotational temperatures (Kelvin)      1.84409     0.19259     0.17833
 Rotational constants (GHZ):          38.42459     4.01284     3.71588
 Zero-point vibrational energy     247018.5 (Joules/Mol)
                                   59.03884 (Kcal/Mol)
 Warning -- explicit consideration of   5 degrees of freedom as
           vibrations may cause significant error
 Vibrational temperatures:    211.16   311.07   414.87   731.14   782.20
          (Kelvin)           1068.29  1153.70  1270.47  1431.89  1434.10
                             1482.89  1640.60  1739.41  1851.38  1939.81
                             2030.09  2117.41  2123.61  2176.02  2198.04
                             4314.82  4360.33  4446.91  4485.60  4514.27
                             4526.82  4662.12

 Zero-point correction=                           0.094084 (Hartree/Particle)
 Thermal correction to Energy=                    0.099374
 Thermal correction to Enthalpy=                  0.100318
 Thermal correction to Gibbs Free Energy=         0.066280
 Sum of electronic and zero-point Energies=           -156.553696
 Sum of electronic and thermal Energies=              -156.548406
 Sum of electronic and thermal Enthalpies=            -156.547462
 Sum of electronic and thermal Free Energies=         -156.581500

                     E (Thermal)             CV                S
                      KCal/Mol        Cal/Mol-Kelvin    Cal/Mol-Kelvin
 Total                   62.358             17.928             71.640
 Electronic               0.000              0.000              1.377
 Translational            0.889              2.981             37.939
 Rotational               0.889              2.981             23.843
 Vibrational             60.581             11.967              8.480
 Vibration     1          0.617              1.906              2.714
 Vibration     2          0.645              1.816              1.991
 Vibration     3          0.685              1.695              1.484
 Vibration     4          0.863              1.232              0.638
 Vibration     5          0.899              1.154              0.557

 Optimization completed.
    -- Stationary point found.
 Normal termination of Gaussian 16 at Thu Sep 28 14:47:26 2023.
 Gaussian 16:  ES64L-G16RevB.01 20-Dec-2017

 ---------------------------------
 # rohf/gen geom=check guess=check
 ---------------------------------

 -------------------------------
 1-methylallyl, ROHF/cc-pVTZ-F12
 -------------------------------
 Structure from the checkpoint file:  "ch3chchch2.chk"
 Charge =  0 Multiplicity = 2

                         Standard orientation:
 ---------------------------------------------------------------------
 Center     Atomic      Atomic             Coordinates (Angstroms)
 Number     Number       Type             X           Y           Z
 ---------------------------------------------------------------------
      1          6           0        1.353311   -1.417197    0.000000
      2          6           0        0.149592   -0.743351    0.000000
      3          6           0        0.000000    0.631030    0.000000
      4          6           0       -1.310929    1.339212    0.000000
      5          1           0        2.294401   -0.883296    0.000000
      6          1           0        1.393923   -2.496083    0.000000
      7          1           0       -0.759126   -1.339914    0.000000
      8          1           0        0.895454    1.244677    0.000000
      9          1           0       -2.146541    0.639052    0.000000
     10          1           0       -1.414979    1.988702    0.875146
     11          1           0       -1.414979    1.988702   -0.875146
 ---------------------------------------------------------------------

 SCF Done:  E(ROHF) =  -155.548726230     A.U. after  129 cycles

 The electronic state is 2-A".
 Alpha  occ. eigenvalues --  -11.23320 -11.23031 -11.22348 -11.22302  -1.07851
 Alpha  occ. eigenvalues --   -0.98496  -0.85156  -0.74797  -0.62585  -0.61986
 Alpha  occ. eigenvalues --   -0.56405  -0.53416  -0.52213  -0.49702  -0.38738
 Alpha  occ. eigenvalues --   -0.06380
 Alpha virt. eigenvalues --    0.04773   0.05184   0.05633   0.07398   0.07652
 Alpha virt. eigenvalues --    0.08395   0.09115   0.10783   0.11074   0.11660
 Alpha virt. eigenvalues --    0.12289   0.13562   0.16819   0.18041   0.19834

 Mulliken charges and spin densities:
               1          2
     1  C   -0.359908   0.423629
     2  C   -0.159714   0.038293
     3  C   -0.046815   0.478619
     4  C   -0.283408   0.009639
     5  H    0.133868   0.008973
     6  H    0.153986   0.012502
     7  H    0.158394   0.000236
     8  H    0.151026   0.008440
     9  H    0.088303   0.000101
    10  H    0.082134   0.009784
    11  H    0.082134   0.009784
 Sum of Mulliken charges =  -0.00000   1.00000

 Dipole moment (field-independent basis, Debye):
    X=             -0.3751    Y=              0.4778    Z=             -0.0000  Tot=              0.6074
 Quadrupole moment (field-independent basis, Debye-Ang):
   XX=            -24.9471   YY=            -24.6194   ZZ=            -29.1758
   XY=              0.3564   XZ=             -0.0000   YZ=              0.0000

 Normal termination of Gaussian 16 at Thu Sep 28 15:12:24 2023.
