 Gaussian 16, Revision B.01,
 Gaussian 16:  ES64L-G16RevB.01 20-Dec-2017

 --------------------
 # b3lyp/gen opt freq
 --------------------

 ----------------------------
 1-methylallyl, B3LYP/pcseg-2
 ----------------------------
 Symbolic Z-matrix:
 Charge =  0 Multiplicity = 2

 SCF Done:  E(UB3LYP) =  -156.647764422     A.U. after   15 cycles
 SCF Done:  E(UB3LYP) =  -156.647779969     A.U. after    9 cycles
 Optimization completed.
    -- Stationary point found.
 Normal termination of Gaussian 16 at Tue Jun 21 10:26:25 2022.

 ------------------------------------------------------------------
 #N Geom=AllCheck Guess=TCheck SCRF=Check GenChk UB3LYP/ChkBas Freq
 ------------------------------------------------------------------

 Structure from the checkpoint file:  "/wrk/irikura/Gau-26814.chk"
 ----------------------------
 1-methylallyl, B3LYP/pcseg-2
 ----------------------------
 Charge =  0 Multiplicity = 2

                         Standard orientation:
 ---------------------------------------------------------------------
 Center     Atomic      Atomic             Coordinates (Angstroms)
 Number     Number       Type             X           Y           Z
 ---------------------------------------------------------------------
      1          6           0        1.353311   -1.417197    0.000000
      2          6           0        0.149592   -0.743351    0.000000
      3          6           0        0.000000    0.631030    0.000000
      4          6           0       -1.310929    1.339212    0.000000
      5          1           0        2.294401   -0.883296    0.000000
      6          1           0        1.393922   -2.496083    0.000000
      7          1           0       -0.759126   -1.339914    0.000000
      8          1           0        0.895454    1.244677    0.000000
      9          1           0       -2.146541    0.639053    0.000000
     10          1           0       -1.414979    1.988702    0.875146
     11          1           0       -1.414979    1.988702   -0.875146
 ---------------------------------------------------------------------

 SCF Done:  E(UB3LYP) =  -156.647779969     A.U. after    1 cycles

 The electronic state is 2-A".
 Alpha  occ. eigenvalues --  -10.18212 -10.17230 -10.17165 -10.17070  -0.80947
 Alpha  occ. eigenvalues --   -0.73661  -0.63677  -0.55556  -0.46315  -0.45787
 Alpha  occ. eigenvalues --   -0.42356  -0.38643  -0.37866  -0.35536  -0.31536
 Alpha  occ. eigenvalues --   -0.18985
 Alpha virt. eigenvalues --    0.02167   0.02711   0.03726   0.03816   0.07651
 Alpha virt. eigenvalues --    0.07847   0.08732   0.10738   0.13478   0.16029
 Alpha virt. eigenvalues --    0.16772   0.18876   0.19091   0.21345   0.23295

  Beta  occ. eigenvalues --  -10.17525 -10.17277 -10.17122 -10.16281  -0.79855
  Beta  occ. eigenvalues --   -0.72750  -0.62122  -0.54961  -0.45792  -0.45383
  Beta  occ. eigenvalues --   -0.41297  -0.38413  -0.37351  -0.35293  -0.28821
  Beta virt. eigenvalues --   -0.07703   0.02224   0.03845   0.03925   0.04631
  Beta virt. eigenvalues --    0.07763   0.07993   0.08770   0.10839   0.13537
  Beta virt. eigenvalues --    0.16072   0.16816   0.19393   0.20918   0.21585

 Mulliken charges and spin densities:
               1          2
     1  C   -0.130854   0.672912
     2  C   -0.023339  -0.246256
     3  C   -0.025495   0.626748
     4  C   -0.053397  -0.043988
     5  H    0.042172  -0.024411
     6  H    0.048703  -0.026902
     7  H    0.017050   0.007491
     8  H    0.028691  -0.024357
     9  H    0.023216   0.001392
    10  H    0.036627   0.028687
    11  H    0.036627   0.028687
 Sum of Mulliken charges =  -0.00000   1.00000

 Dipole moment (field-independent basis, Debye):
    X=             -0.3821    Y=              0.4446    Z=              0.0000  Tot=              0.5862
 Quadrupole moment (field-independent basis, Debye-Ang):
   XX=            -25.1259   YY=            -24.7133   ZZ=            -28.7738
   XY=              0.3006   XZ=              0.0000   YZ=              0.0000

  Exact polarizability:  58.319 -16.617  65.889   0.000  -0.000  35.520
 Approx polarizability:  76.958 -19.420  90.699   0.000   0.000  50.220

                      1                      2                      3
                     A"                     A"                     A'
 Frequencies --    146.7588               216.2014               288.3472
 Red. masses --      1.1949                 2.2547                 2.2735
 Frc consts  --      0.0152                 0.0621                 0.1114
 IR Inten    --      0.8606                 1.8748                 0.2059

                      4                      5                      6
                     A'                     A"                     A"
 Frequencies --    508.1669               543.6568               742.4984
 Red. masses --      2.7130                 1.1578                 1.2364
 Frc consts  --      0.4128                 0.2016                 0.4016
 IR Inten    --      0.6516                 6.9679                 0.0488

                      7                      8                      9
                     A"                     A'                     A"
 Frequencies --    801.8635               883.0209               995.2098
 Red. masses --      1.4924                 1.7984                 1.1554
 Frc consts  --      0.5654                 0.8262                 0.6743
 IR Inten    --     55.3738                 6.5492                25.3317

                     10                     11                     12
                     A'                     A"                     A'
 Frequencies --    996.7413              1030.6615              1140.2721
 Red. masses --      1.2046                 1.4316                 2.3865
 Frc consts  --      0.7051                 0.8960                 1.8282
 IR Inten    --      4.4702                 2.6104                 0.9213

                     13                     14                     15
                     A'                     A'                     A'
 Frequencies --   1208.9453              1286.7728              1348.2301
 Red. masses --      1.8100                 2.1292                 1.3892
 Frc consts  --      1.5586                 2.0772                 1.4878
 IR Inten    --      1.0153                 2.0639                 1.2929

                     16                     17                     18
                     A'                     A"                     A'
 Frequencies --   1410.9838              1471.6694              1475.9825
 Red. masses --      1.2445                 1.0460                 1.1894
 Frc consts  --      1.4598                 1.3347                 1.5266
 IR Inten    --      1.2686                 6.7682                16.4958

                     19                     20                     21
                     A'                     A'                     A'
 Frequencies --   1512.4106              1527.7111              2998.9498
 Red. masses --      1.3261                 1.8958                 1.0385
 Frc consts  --      1.7872                 2.6069                 5.5031
 IR Inten    --      7.8218                 0.9705                33.1236

                     22                     23                     24
                     A"                     A'                     A'
 Frequencies --   3030.5824              3090.7482              3117.6553
 Red. masses --      1.0981                 1.0969                 1.0865
 Frc consts  --      5.9419                 6.1736                 6.2219
 IR Inten    --     19.2732                13.7851                 6.5354

                     25                     26                     27
                     A'                     A'                     A'
 Frequencies --   3137.5694              3146.2960              3240.3312
 Red. masses --      1.0846                 1.0571                 1.1161
 Frc consts  --      6.2906                 6.1652                 6.9046
 IR Inten    --     25.9535                13.9993                11.0067

 - Thermochemistry -
 -------------------
 Temperature   298.150 Kelvin.  Pressure   1.00000 Atm.
 Atom     1 has atomic number  6 and mass  12.00000

 Molecular mass:    55.05478 amu.
 Principal axes and moments of inertia in atomic units:
                           1         2         3
     Eigenvalues --    46.96841 449.74121 485.68398
           X           -0.65621   0.75458   0.00000
           Y            0.75458   0.65621   0.00000
           Z           -0.00000   0.00000   1.00000
 This molecule is an asymmetric top.
 Rotational symmetry number  1.
 Rotational temperatures (Kelvin)      1.84409     0.19259     0.17833
 Rotational constants (GHZ):          38.42458     4.01284     3.71588
 Zero-point vibrational energy     247018.3 (Joules/Mol)
                                   59.03879 (Kcal/Mol)
 Warning -- explicit consideration of   5 degrees of freedom as
           vibrations may cause significant error
 Vibrational temperatures:    211.15   311.07   414.87   731.14   782.20
          (Kelvin)           1068.29  1153.70  1270.47  1431.88  1434.09
                             1482.89  1640.60  1739.40  1851.38  1939.80
                             2030.09  2117.40  2123.61  2176.02  2198.04
                             4314.82  4360.33  4446.90  4485.61  4514.26
                             4526.82  4662.11

 Zero-point correction=                           0.094084 (Hartree/Particle)
 Thermal correction to Energy=                    0.099374
 Thermal correction to Enthalpy=                  0.100318
 Thermal correction to Gibbs Free Energy=         0.066279
 Sum of electronic and zero-point Energies=           -156.553696
 Sum of electronic and thermal Energies=              -156.548406
 Sum of electronic and thermal Enthalpies=            -156.547462
 Sum of electronic and thermal Free Energies=         -156.581501

                     E (Thermal)             CV                S
                      KCal/Mol        Cal/Mol-Kelvin    Cal/Mol-Kelvin
 Total                   62.358             17.928             71.640
 Electronic               0.000              0.000              1.377
 Translational            0.889              2.981             37.939
 Rotational               0.889              2.981             23.843
 Vibrational             60.580             11.967              8.480
 Vibration     1          0.617              1.906              2.714
 Vibration     2          0.645              1.816              1.991
 Vibration     3          0.685              1.695              1.484
 Vibration     4          0.863              1.232              0.638
 Vibration     5          0.899              1.154              0.557

 Optimization completed.
    -- Stationary point found.
 Normal termination of Gaussian 16 at Tue Jun 21 10:28:46 2022.
