 Gaussian 16, Revision B.01,
 Gaussian 16:  ES64L-G16RevB.01 20-Dec-2017

 --------------------
 # b3lyp/gen opt freq
 --------------------

 -------------------------
 ethylidyne, B3LYP/pcseg-2
 -------------------------
 Symbolic Z-matrix:
 Charge =  0 Multiplicity = 2

 SCF Done:  E(UB3LYP) =  -77.8601673998     A.U. after   15 cycles
 SCF Done:  E(UB3LYP) =  -77.8602889952     A.U. after   13 cycles
 SCF Done:  E(UB3LYP) =  -77.8602911227     A.U. after    8 cycles
 Optimization completed.
    -- Stationary point found.
 Normal termination of Gaussian 16 at Thu Jun 16 12:27:32 2022.

 ------------------------------------------------------------------
 #N Geom=AllCheck Guess=TCheck SCRF=Check GenChk UB3LYP/ChkBas Freq
 ------------------------------------------------------------------

 Structure from the checkpoint file:  "/wrk/irikura/Gau-478.chk"
 -------------------------
 ethylidyne, B3LYP/pcseg-2
 -------------------------
 Charge =  0 Multiplicity = 2

                         Standard orientation:
 ---------------------------------------------------------------------
 Center     Atomic      Atomic             Coordinates (Angstroms)
 Number     Number       Type             X           Y           Z
 ---------------------------------------------------------------------
      1          6           0        0.026109   -0.500534    0.000000
      2          6           0        0.026109    0.934450   -0.000000
      3          1           0       -1.084188   -0.599807    0.000000
      4          1           0        0.385438   -1.001847    0.908139
      5          1           0        0.385438   -1.001847   -0.908139
 ---------------------------------------------------------------------

 SCF Done:  E(UB3LYP) =  -77.8602911227     A.U. after    1 cycles

 The electronic state is 2-A".
 Alpha  occ. eigenvalues --  -10.23786 -10.19754  -0.79645  -0.55757  -0.46048
 Alpha  occ. eigenvalues --   -0.45042  -0.30147  -0.21226
 Alpha virt. eigenvalues --   -0.09786   0.01194   0.05832   0.06349   0.09840
 Alpha virt. eigenvalues --    0.15014   0.17935   0.20266   0.21632   0.22610
 Alpha virt. eigenvalues --    0.29647   0.31248   0.32196   0.32987   0.41650

  Beta  occ. eigenvalues --  -10.22310 -10.19852  -0.78356  -0.53070  -0.44802
  Beta  occ. eigenvalues --   -0.44520  -0.28056
  Beta virt. eigenvalues --   -0.08290  -0.05864   0.01255   0.05905   0.06550
  Beta virt. eigenvalues --    0.10165   0.15107   0.18169   0.21373   0.23064
  Beta virt. eigenvalues --    0.24342   0.30018   0.31884   0.32573   0.33868

 Mulliken charges and spin densities:
               1          2
     1  C    0.009686  -0.057988
     2  C   -0.173492   0.945350
     3  H    0.051038  -0.010732
     4  H    0.056384   0.061685
     5  H    0.056384   0.061685
 Sum of Mulliken charges =   0.00000   1.00000

 Dipole moment (field-independent basis, Debye):
    X=             -0.1598    Y=             -2.6998    Z=             -0.0000  Tot=              2.7045
 Quadrupole moment (field-independent basis, Debye-Ang):
   XX=            -12.1632   YY=            -17.3273   ZZ=            -13.8786
   XY=              0.2604   XZ=             -0.0000   YZ=             -0.0000

  Exact polarizability:  21.791  -0.175  31.087   0.000  -0.000  23.762
 Approx polarizability:  32.045   0.890  39.294  -0.000  -0.000  28.479

                      1                      2                      3
                     A'                     A"                     A'
 Frequencies --    521.8203               855.2577              1104.7108
 Red. masses --      1.3079                 1.3105                 2.6231
 Frc consts  --      0.2098                 0.5648                 1.8861
 IR Inten    --      4.1655                 0.1408                16.1943

                      4                      5                      6
                     A"                     A'                     A'
 Frequencies --   1287.9362              1306.3696              1442.1603
 Red. masses --      1.0321                 1.4671                 1.1219
 Frc consts  --      1.0087                 1.4752                 1.3747
 IR Inten    --     23.3068                72.6284                 7.6931

                      7                      8                      9
                     A'                     A'                     A"
 Frequencies --   2879.4196              2968.6478              3000.9308
 Red. masses --      1.0510                 1.0674                 1.1063
 Frc consts  --      5.1339                 5.5422                 5.8701
 IR Inten    --     13.4259                22.4398                15.9821

 - Thermochemistry -
 -------------------
 Temperature   298.150 Kelvin.  Pressure   1.00000 Atm.
 Atom     1 has atomic number  6 and mass  12.00000

 Molecular mass:    27.02348 amu.
 Principal axes and moments of inertia in atomic units:
                           1         2         3
     Eigenvalues --    11.28176  61.13820  61.72908
           X           -0.00118   0.00000   1.00000
           Y            1.00000   0.00000   0.00118
           Z           -0.00000   1.00000   0.00000
 This molecule is an asymmetric top.
 Rotational symmetry number  1.
 Rotational temperatures (Kelvin)      7.67734     1.41669     1.40313
 Rotational constants (GHZ):         159.96979    29.51904    29.23648
 Zero-point vibrational energy      91916.6 (Joules/Mol)
                                   21.96859 (Kcal/Mol)
 Warning -- explicit consideration of   1 degrees of freedom as
           vibrations may cause significant error
 Vibrational temperatures:    750.78  1230.53  1589.43  1853.05  1879.57
          (Kelvin)           2074.95  4142.84  4271.22  4317.67

 Zero-point correction=                           0.035009 (Hartree/Particle)
 Thermal correction to Energy=                    0.038167
 Thermal correction to Enthalpy=                  0.039112
 Thermal correction to Gibbs Free Energy=         0.012270
 Sum of electronic and zero-point Energies=            -77.825282
 Sum of electronic and thermal Energies=               -77.822124
 Sum of electronic and thermal Enthalpies=             -77.821179
 Sum of electronic and thermal Free Energies=          -77.848021

                     E (Thermal)             CV                S
                      KCal/Mol        Cal/Mol-Kelvin    Cal/Mol-Kelvin
 Total                   23.950              8.395             56.493
 Electronic               0.000              0.000              1.377
 Translational            0.889              2.981             35.818
 Rotational               0.889              2.981             18.394
 Vibrational             22.173              2.433              0.904
 Vibration     1          0.877              1.202              0.606

 Optimization completed.
    -- Stationary point found.
 Normal termination of Gaussian 16 at Thu Jun 16 12:27:48 2022.
