 Gaussian 16, Revision B.01,

 ---------------------------------------
 # b3lyp/gen opt freq CPHF(Grid=OneStep)
 ---------------------------------------

 ----------------------------
 2-methylallyl, B3LYP/pcseg-2
 ----------------------------
 Symbolic Z-matrix:
 Charge =  0 Multiplicity = 2

 SCF Done:  E(UB3LYP) =  -156.644363444     A.U. after   15 cycles
 Optimization completed.
    -- Stationary point found.
 Normal termination of Gaussian 16 at Fri Sep 29 02:39:24 2023.

 ------------------------------------------------------------------
 #N Geom=AllCheck Guess=TCheck SCRF=Check GenChk UB3LYP/ChkBas Freq
 ------------------------------------------------------------------

 Structure from the checkpoint file:  "ch3cchch2ch2.chk"
 ----------------------------
 2-methylallyl, B3LYP/pcseg-2
 ----------------------------
 Charge =  0 Multiplicity = 2

 SCF Done:  E(UB3LYP) =  -156.644363444     A.U. after    1 cycles

  Exact polarizability:  65.949  -1.690  51.771  -0.000   0.000  35.453
 Approx polarizability:  97.080  -3.701  65.650  -0.000  -0.000  50.488

                      1                      2                      3
                     A"                     A'                     A'
 Frequencies --     31.1526               407.6075               438.3341
 Red. masses --      1.0528                 2.1613                 2.0582
 Frc consts  --      0.0006                 0.2116                 0.2330
 IR Inten    --      0.2233                 0.3078                 1.1815

                      4                      5                      6
                     A"                     A"                     A"
 Frequencies --    482.4032               533.1838               564.7741
 Red. masses --      2.2944                 1.0214                 1.0219
 Frc consts  --      0.3146                 0.1711                 0.1921
 IR Inten    --     18.5539                 0.6094                 1.3052

                      7                      8                      9
                     A"                     A"                     A'
 Frequencies --    775.7431               816.1634               848.4157
 Red. masses --      1.3316                 1.4450                 3.2359
 Frc consts  --      0.4721                 0.5671                 1.3724
 IR Inten    --     10.6284                66.1477                 0.5304

                     10                     11                     12
                     A'                     A'                     A'
 Frequencies --    975.1509              1022.4288              1051.5542
 Red. masses --      1.2193                 1.6336                 1.6719
 Frc consts  --      0.6831                 1.0061                 1.0892
 IR Inten    --      0.7056                 0.4530                 0.0177

                     13                     14                     15
                     A"                     A'                     A'
 Frequencies --   1059.3338              1332.8131              1377.1308
 Red. masses --      1.4802                 2.7596                 1.8628
 Frc consts  --      0.9787                 2.8882                 2.0815
 IR Inten    --      0.2880                 1.5858                 1.0191

                     16                     17                     18
                     A'                     A'                     A"
 Frequencies --   1416.7068              1487.0129              1487.4124
 Red. masses --      1.4016                 1.1864                 1.0434
 Frc consts  --      1.6575                 1.5456                 1.3601
 IR Inten    --      5.4228                12.5453                 7.5074

                     19                     20                     21
                     A'                     A'                     A'
 Frequencies --   1502.0751              1534.9552              3033.9944
 Red. masses --      1.1659                 1.5383                 1.0365
 Frc consts  --      1.5499                 2.1354                 5.6216
 IR Inten    --      1.6192                 8.8141                21.5607

                     22                     23                     24
                     A"                     A'                     A'
 Frequencies --   3084.6714              3111.3082              3140.6503
 Red. masses --      1.1005                 1.1008                 1.0515
 Frc consts  --      6.1696                 6.2786                 6.1106
 IR Inten    --     14.7219                14.9761                11.7134

                     25                     26                     27
                     A'                     A'                     A'
 Frequencies --   3147.9105              3234.6216              3236.7023
 Red. masses --      1.0558                 1.1174                 1.1170
 Frc consts  --      6.1640                 6.8885                 6.8948
 IR Inten    --      4.5215                 4.2802                16.8067

 - Thermochemistry -
 -------------------
 Temperature   298.150 Kelvin.  Pressure   1.00000 Atm.
 Atom     1 has atomic number  6 and mass  12.00000

 Molecular mass:    55.05478 amu.
 Principal axes and moments of inertia in atomic units:
                           1         2         3
     Eigenvalues --   180.35842 203.95604 373.19998
           X            0.04258   0.99909   0.00000
           Y            0.99909  -0.04258   0.00000
           Z            0.00000   0.00000   1.00000
 This molecule is an asymmetric top.
 Rotational symmetry number  1.
 Rotational temperatures (Kelvin)      0.48023     0.42467     0.23208
 Rotational constants (GHZ):          10.00641     8.84868     4.83586
 Zero-point vibrational energy     246037.2 (Joules/Mol)
                                   58.80431 (Kcal/Mol)
 Warning -- explicit consideration of   6 degrees of freedom as
           vibrations may cause significant error
 Vibrational temperatures:     44.82   586.46   630.66   694.07   767.13
          (Kelvin)            812.58  1116.12  1174.28  1220.68  1403.02
                             1471.05  1512.95  1524.15  1917.62  1981.38
                             2038.33  2139.48  2140.05  2161.15  2208.46
                             4365.24  4438.15  4476.48  4518.70  4529.14
                             4653.90  4656.89

 Zero-point correction=                           0.093711 (Hartree/Particle)
 Thermal correction to Energy=                    0.099016
 Thermal correction to Enthalpy=                  0.099960
 Thermal correction to Gibbs Free Energy=         0.064891
 Sum of electronic and zero-point Energies=           -156.550653
 Sum of electronic and thermal Energies=              -156.545348
 Sum of electronic and thermal Enthalpies=            -156.544403
 Sum of electronic and thermal Free Energies=         -156.579472

                     E (Thermal)             CV                S
                      KCal/Mol        Cal/Mol-Kelvin    Cal/Mol-Kelvin
 Total                   62.133             18.293             73.808
 Electronic               0.000              0.000              1.377
 Translational            0.889              2.981             37.939
 Rotational               0.889              2.981             24.133
 Vibrational             60.356             12.332             10.359
 Vibration     1          0.594              1.983              5.755
 Vibration     2          0.772              1.454              0.935
 Vibration     3          0.799              1.387              0.832
 Vibration     4          0.839              1.289              0.704
 Vibration     5          0.888              1.177              0.580
 Vibration     6          0.921              1.107              0.514

 Optimization completed.
    -- Stationary point found.
 Normal termination of Gaussian 16 at Fri Sep 29 02:50:42 2023.
 Gaussian 16:  ES64L-G16RevB.01 20-Dec-2017

 ---------------------------------
 # rohf/gen geom=check guess=check
 ---------------------------------

 -------------------------------
 2-methylallyl, ROHF/cc-pVTZ-F12
 -------------------------------
 Structure from the checkpoint file:  "ch3cchch2ch2.chk"
 Charge =  0 Multiplicity = 2

                         Standard orientation:
 ---------------------------------------------------------------------
 Center     Atomic      Atomic             Coordinates (Angstroms)
 Number     Number       Type             X           Y           Z
 ---------------------------------------------------------------------
      1          6           0        1.253328    0.688974    0.000000
      2          6           0        0.000000    0.092220    0.000000
      3          6           0       -0.089952   -1.419404    0.000000
      4          6           0       -1.155312    0.847449    0.000000
      5          1           0       -2.132961    0.387197    0.000000
      6          1           0       -1.113919    1.928193    0.000000
      7          1           0        2.160057    0.100398    0.000000
      8          1           0        1.357705    1.765071    0.000000
      9          1           0       -1.124637   -1.758142    0.000000
     10          1           0        0.402685   -1.839076    0.878665
     11          1           0        0.402685   -1.839076   -0.878665
 ---------------------------------------------------------------------

 SCF Done:  E(ROHF) =  -155.547589170     A.U. after   20 cycles

 The electronic state is 2-A".
 Alpha  occ. eigenvalues --  -11.24295 -11.22529 -11.22185 -11.22010  -1.09133
 Alpha  occ. eigenvalues --   -0.93535  -0.90322  -0.72160  -0.62955  -0.62200
 Alpha  occ. eigenvalues --   -0.57066  -0.53288  -0.52491  -0.49720  -0.37623
 Alpha  occ. eigenvalues --   -0.07155
 Alpha virt. eigenvalues --    0.05187   0.05383   0.05523   0.06796   0.08028
 Alpha virt. eigenvalues --    0.08342   0.09689   0.09902   0.10929   0.11547
 Alpha virt. eigenvalues --    0.14434   0.14494   0.15314   0.17851   0.19311

 Mulliken charges and spin densities:
               1          2
     1  C   -0.351189   0.683447
     2  C    0.182246   0.024962
     3  C   -0.315628   0.000979
     4  C   -0.379922   0.243632
     5  H    0.139980   0.006863
     6  H    0.135742   0.005330
     7  H    0.143361   0.018933
     8  H    0.143273   0.013585
     9  H    0.102047   0.000319
    10  H    0.100045   0.000975
    11  H    0.100045   0.000975
 Sum of Mulliken charges =  -0.00000   1.00000

 Dipole moment (field-independent basis, Debye):
    X=              0.2636    Y=             -0.3170    Z=             -0.0000  Tot=              0.4123
 Quadrupole moment (field-independent basis, Debye-Ang):
   XX=            -24.9473   YY=            -24.7803   ZZ=            -29.1724
   XY=              0.1258   XZ=             -0.0000   YZ=              0.0000

 Normal termination of Gaussian 16 at Fri Sep 29 02:54:25 2023.
