 Gaussian 16, Revision B.01,
 Gaussian 16:  ES64L-G16RevB.01 20-Dec-2017

 ----------------------------------------
 # b3lyp/gen opt freq Int(Grid=UltraFine)
 ----------------------------------------

 ---------------------------------
 2-butynyl, B3LYP/pcseg-2, Cs symm
 ---------------------------------
 Symbolic Z-matrix:
 Charge =  0 Multiplicity = 2

 SCF Done:  E(UB3LYP) =  -155.394744530     A.U. after   17 cycles
 Optimization completed.
    -- Stationary point found.
 Normal termination of Gaussian 16 at Fri Sep 15 14:52:39 2023.

 ------------------------------------------------------------------
 #N Geom=AllCheck Guess=TCheck SCRF=Check GenChk UB3LYP/ChkBas Freq
 ------------------------------------------------------------------

 Structure from the checkpoint file:  "/wrk/irikura/Gau-10620.chk"
 ---------------------------------
 2-butynyl, B3LYP/pcseg-2, Cs symm
 ---------------------------------
 Charge =  0 Multiplicity = 2

                         Standard orientation:
 ---------------------------------------------------------------------
 Center     Atomic      Atomic             Coordinates (Angstroms)
 Number     Number       Type             X           Y           Z
 ---------------------------------------------------------------------
      1          6           0       -0.028027    1.964830    0.000000
      2          6           0        0.000000    0.513760    0.000000
      3          6           0        0.011144   -0.708394    0.000000
      4          6           0        0.025897   -2.073464    0.000000
      5          1           0       -1.055970    2.338765    0.000000
      6          1           0        0.468887    2.371086    0.883517
      7          1           0        0.468887    2.371086   -0.883517
      8          1           0        0.032055   -2.630663   -0.926502
      9          1           0        0.032055   -2.630663    0.926502
 ---------------------------------------------------------------------

 SCF Done:  E(UB3LYP) =  -155.394744530     A.U. after    1 cycles

 The electronic state is 2-A'.
 Alpha  occ. eigenvalues --  -10.19732 -10.19037 -10.18294 -10.17063  -0.80085
 Alpha  occ. eigenvalues --   -0.75155  -0.67472  -0.49794  -0.45874  -0.44960
 Alpha  occ. eigenvalues --   -0.44276  -0.43462  -0.33003  -0.26638  -0.20253
 Alpha virt. eigenvalues --    0.01304   0.03108   0.03627   0.06069   0.07092
 Alpha virt. eigenvalues --    0.09332   0.09850   0.09984   0.13795   0.17632
 Alpha virt. eigenvalues --    0.17795   0.18042   0.18978   0.21256   0.22362

  Beta  occ. eigenvalues --  -10.19783 -10.17961 -10.17571 -10.17326  -0.78998
  Beta  occ. eigenvalues --   -0.74179  -0.65771  -0.49054  -0.45358  -0.44540
  Beta  occ. eigenvalues --   -0.43418  -0.43142  -0.29873  -0.26335
  Beta virt. eigenvalues --   -0.08842   0.01376   0.03246   0.03911   0.06762
  Beta virt. eigenvalues --    0.07118   0.09409   0.10047   0.10777   0.13873
  Beta virt. eigenvalues --    0.17723   0.18240   0.19404   0.20459   0.21847

 Mulliken charges and spin densities:
               1          2
     1  C   -0.073584  -0.032696
     2  C   -0.010721   0.486616
     3  C   -0.003762  -0.223242
     4  C   -0.201851   0.779735
     5  H    0.053132   0.030621
     6  H    0.053419   0.009324
     7  H    0.053419   0.009324
     8  H    0.064974  -0.029841
     9  H    0.064974  -0.029841
 Sum of Mulliken charges =  -0.00000   1.00000

 Dipole moment (field-independent basis, Debye):
    X=             -0.0315    Y=              0.9890    Z=             -0.0000  Tot=              0.9895
 Quadrupole moment (field-independent basis, Debye-Ang):
   XX=            -26.4606   YY=            -19.5114   ZZ=            -24.6633
   XY=             -0.1054   XZ=              0.0000   YZ=             -0.0000

  Exact polarizability:  31.890  -0.893  85.780   0.000   0.000  33.043
 Approx polarizability:  42.934  -1.234 126.763  -0.000   0.000  44.628

                      1                      2                      3
                     A"                     A'                     A"
 Frequencies --     45.1809               182.0144               207.5167
 Red. masses --      1.0083                 3.2171                 2.6970
 Frc consts  --      0.0012                 0.0628                 0.0684
 IR Inten    --      0.0290                 9.2670                 9.8887

                      4                      5                      6
                     A"                     A'                     A'
 Frequencies --    395.1265               427.9674               685.5864
 Red. masses --      3.7272                 5.3700                 1.3635
 Frc consts  --      0.3428                 0.5795                 0.3776
 IR Inten    --      0.0276                 0.8211                53.8475

                      7                      8                      9
                     A'                     A'                     A"
 Frequencies --    772.5216              1032.4114              1034.4039
 Red. masses --      3.9046                 1.3574                 1.4440
 Frc consts  --      1.3729                 0.8525                 0.9104
 IR Inten    --      0.0605                 2.0798                 0.5489

                     10                     11                     12
                     A"                     A'                     A'
 Frequencies --   1053.9157              1261.5949              1415.5158
 Red. masses --      1.3825                 3.3181                 1.2490
 Frc consts  --      0.9047                 3.1116                 1.4745
 IR Inten    --      0.6135                 0.0943                 2.7902

                     13                     14                     15
                     A'                     A'                     A"
 Frequencies --   1470.4158              1471.5300              1471.7882
 Red. masses --      1.2563                 1.0697                 1.0380
 Frc consts  --      1.6004                 1.3647                 1.3248
 IR Inten    --      1.1712                 6.4648                 7.8070

                     16                     17                     18
                     A'                     A'                     A'
 Frequencies --   2141.1314              3009.8518              3058.3975
 Red. masses --     11.6708                 1.0362                 1.0969
 Frc consts  --     31.5237                 5.5309                 6.0450
 IR Inten    --     15.5971                27.9513                 9.6072

                     19                     20                     21
                     A"                     A'                     A"
 Frequencies --   3075.3796              3139.2413              3225.0901
 Red. masses --      1.1011                 1.0509                 1.1170
 Frc consts  --      6.1358                 6.1017                 6.8455
 IR Inten    --      8.2299                 7.1522                 2.1496

 - Thermochemistry -
 -------------------
 Temperature   298.150 Kelvin.  Pressure   1.00000 Atm.
 Atom     1 has atomic number  6 and mass  12.00000

 Molecular mass:    53.03913 amu.
 Principal axes and moments of inertia in atomic units:
                           1         2         3
     Eigenvalues --    17.38178 497.90372 504.11716
           X           -0.01333   0.00000   0.99991
           Y            0.99991   0.00000   0.01333
           Z           -0.00000   1.00000  -0.00000
 This molecule is an asymmetric top.
 Rotational symmetry number  1.
 Rotational temperatures (Kelvin)      4.98303     0.17396     0.17181
 Rotational constants (GHZ):         103.82949     3.62468     3.58000
 Zero-point vibrational energy     182888.6 (Joules/Mol)
                                   43.71142 (Kcal/Mol)
 Warning -- explicit consideration of   5 degrees of freedom as
           vibrations may cause significant error
 Vibrational temperatures:     65.01   261.88   298.57   568.50   615.75
          (Kelvin)            986.41  1111.49  1485.41  1488.28  1516.35
                             1815.15  2036.61  2115.60  2117.20  2117.57
                             3080.61  4330.51  4400.35  4424.79  4516.67
                             4640.19

 Zero-point correction=                           0.069659 (Hartree/Particle)
 Thermal correction to Energy=                    0.075409
 Thermal correction to Enthalpy=                  0.076353
 Thermal correction to Gibbs Free Energy=         0.041042
 Sum of electronic and zero-point Energies=           -155.325086
 Sum of electronic and thermal Energies=              -155.319336
 Sum of electronic and thermal Enthalpies=            -155.318392
 Sum of electronic and thermal Free Energies=         -155.353703

                     E (Thermal)             CV                S
                      KCal/Mol        Cal/Mol-Kelvin    Cal/Mol-Kelvin
 Total                   47.320             17.609             74.319
 Electronic               0.000              0.000              1.377
 Translational            0.889              2.981             37.828
 Rotational               0.889              2.981             22.994
 Vibrational             45.542             11.647             12.120
 Vibration     1          0.595              1.979              5.018
 Vibration     2          0.630              1.864              2.308
 Vibration     3          0.641              1.829              2.065
 Vibration     4          0.762              1.481              0.981
 Vibration     5          0.789              1.409              0.865

 Optimization completed.
    -- Stationary point found.
 Normal termination of Gaussian 16 at Fri Sep 15 14:55:27 2023.
