 Gaussian 16, Revision B.01,

 ---------------------------------------
 # b3lyp/gen opt freq CPHF(Grid=OneStep)
 ---------------------------------------

 ---------------------------
 acetonitrile, B3LYP/pcseg-2
 ---------------------------
 Symbolic Z-matrix:
 Charge =  0 Multiplicity = 1

 SCF Done:  E(RB3LYP) =  -132.811099654     A.U. after   12 cycles
 Optimization completed.
    -- Stationary point found.
 Normal termination of Gaussian 16 at Fri Sep 29 04:02:53 2023.

 ------------------------------------------------------------------
 #N Geom=AllCheck Guess=TCheck SCRF=Check GenChk RB3LYP/ChkBas Freq
 ------------------------------------------------------------------

 Structure from the checkpoint file:  "ch3cn.chk"
 ---------------------------
 acetonitrile, B3LYP/pcseg-2
 ---------------------------
 Charge =  0 Multiplicity = 1

 SCF Done:  E(RB3LYP) =  -132.811099654     A.U. after    1 cycles

  Exact polarizability:  21.602   0.000  21.602  -0.000  -0.000  39.105
 Approx polarizability:  29.214  -0.000  29.214  -0.000   0.000  60.682

                      1                      2                      3
                      E                      E                     A1
 Frequencies --    383.5725               383.5725               929.5022
 Red. masses --      3.8039                 3.8039                 4.6133
 Frc consts  --      0.3297                 0.3297                 2.3483
 IR Inten    --      0.4044                 0.4044                 1.2529

                      4                      5                      6
                      E                      E                     A1
 Frequencies --   1062.4602              1062.4602              1413.7460
 Red. masses --      1.4469                 1.4469                 1.2310
 Frc consts  --      0.9623                 0.9623                 1.4496
 IR Inten    --      1.8794                 1.8793                 1.9222

                      7                      8                      9
                      E                      E                     A1
 Frequencies --   1474.4152              1474.4152              2361.9492
 Red. masses --      1.0382                 1.0382                12.5588
 Frc consts  --      1.3298                 1.3298                41.2798
 IR Inten    --     10.9954                10.9953                11.0585

                     10                     11                     12
                     A1                      E                      E
 Frequencies --   3051.3933              3120.6817              3120.6817
 Red. masses --      1.0336                 1.1020                 1.1020
 Frc consts  --      5.6700                 6.3230                 6.3230
 IR Inten    --      2.9207                 0.8355                 0.8355

 - Thermochemistry -
 -------------------
 Temperature   298.150 Kelvin.  Pressure   1.00000 Atm.
 Atom     1 has atomic number  6 and mass  12.00000

 Molecular mass:    41.02655 amu.
 Principal axes and moments of inertia in atomic units:
                           1         2         3
     Eigenvalues --    11.28575 194.41568 194.41568
           X            0.00000   0.83205   0.55470
           Y            0.00000  -0.55470   0.83205
           Z            1.00000   0.00000   0.00000
 This molecule is a prolate symmetric top.
 Rotational symmetry number  3.
 Rotational temperatures (Kelvin)      7.67463     0.44551     0.44551
 Rotational constants (GHZ):         159.91324     9.28290     9.28290
 Zero-point vibrational energy     118662.7 (Joules/Mol)
                                   28.36106 (Kcal/Mol)
 Warning -- explicit consideration of   2 degrees of freedom as
           vibrations may cause significant error
 Vibrational temperatures:    551.88   551.88  1337.35  1528.64  1528.64
          (Kelvin)           2034.07  2121.35  2121.35  3398.32  4390.27
                             4489.96  4489.96

 Zero-point correction=                           0.045196 (Hartree/Particle)
 Thermal correction to Energy=                    0.048804
 Thermal correction to Enthalpy=                  0.049748
 Thermal correction to Gibbs Free Energy=         0.022226
 Sum of electronic and zero-point Energies=           -132.765903
 Sum of electronic and thermal Energies=              -132.762295
 Sum of electronic and thermal Enthalpies=            -132.761351
 Sum of electronic and thermal Free Energies=         -132.788873

                     E (Thermal)             CV                S
                      KCal/Mol        Cal/Mol-Kelvin    Cal/Mol-Kelvin
 Total                   30.625             10.329             57.926
 Electronic               0.000              0.000              0.000
 Translational            0.889              2.981             37.062
 Rotational               0.889              2.981             18.500
 Vibrational             28.848              4.367              2.363
 Vibration     1          0.753              1.505              1.025
 Vibration     2          0.753              1.505              1.025

 Optimization completed.
    -- Stationary point found.
 Normal termination of Gaussian 16 at Fri Sep 29 04:03:55 2023.
 Gaussian 16:  ES64L-G16RevB.01 20-Dec-2017

 ---------------------------------
 # rohf/gen geom=check guess=check
 ---------------------------------

 ------------------------------
 acetonitrile, ROHF/cc-pVTZ-F12
 ------------------------------
 Structure from the checkpoint file:  "ch3cn.chk"
 Charge =  0 Multiplicity = 1

                         Standard orientation:
 ---------------------------------------------------------------------
 Center     Atomic      Atomic             Coordinates (Angstroms)
 Number     Number       Type             X           Y           Z
 ---------------------------------------------------------------------
      1          6           0        0.000000    0.000000   -1.174026
      2          6           0        0.000000    0.000000    0.280660
      3          7           0        0.000000    0.000000    1.429968
      4          1           0        0.000000    1.022382   -1.549861
      5          1           0        0.885409   -0.511191   -1.549861
      6          1           0       -0.885409   -0.511191   -1.549861
 ---------------------------------------------------------------------

 SCF Done:  E(ROHF) =  -131.982540926     A.U. after   10 cycles

 The electronic state is 1-A1.
 Alpha  occ. eigenvalues --  -15.56781 -11.28446 -11.27551  -1.22323  -1.04258
 Alpha  occ. eigenvalues --   -0.70023  -0.63125  -0.63125  -0.55663  -0.46395
 Alpha  occ. eigenvalues --   -0.46395
 Alpha virt. eigenvalues --    0.03461   0.06410   0.06731   0.06731   0.09757
 Alpha virt. eigenvalues --    0.09757   0.09819   0.16142   0.16142   0.16685
 Alpha virt. eigenvalues --    0.17779   0.19759   0.19759   0.22932   0.24113

 Mulliken charges and spin densities:
               1          2
     1  C   -0.127727   0.000000
     2  C    0.155490   0.000000
     3  N   -0.408943   0.000000
     4  H    0.127060   0.000000
     5  H    0.127060   0.000000
     6  H    0.127060   0.000000
 Sum of Mulliken charges =   0.00000   0.00000

 Dipole moment (field-independent basis, Debye):
    X=             -0.0000    Y=              0.0000    Z=             -4.2462  Tot=              4.2462
 Quadrupole moment (field-independent basis, Debye-Ang):
   XX=            -17.8026   YY=            -17.8026   ZZ=            -21.0608
   XY=             -0.0000   XZ=              0.0000   YZ=             -0.0000

 Normal termination of Gaussian 16 at Fri Sep 29 04:04:10 2023.
