 Gaussian 16, Revision B.01,

 ---------------------------------------
 # b3lyp/gen opt freq CPHF(Grid=OneStep)
 ---------------------------------------

 -------------------------
 ethanimine, B3LYP/pcseg-2
 -------------------------
 Symbolic Z-matrix:
 Charge =  0 Multiplicity = 1

 SCF Done:  E(RB3LYP) =  -134.014305495     A.U. after   12 cycles
 Optimization completed.
    -- Stationary point found.
 Normal termination of Gaussian 16 at Fri Sep 29 22:42:40 2023.

 ------------------------------------------------------------------
 #N Geom=AllCheck Guess=TCheck SCRF=Check GenChk RB3LYP/ChkBas Freq
 ------------------------------------------------------------------

 Structure from the checkpoint file:  "ch3chnh.chk"
 -------------------------
 ethanimine, B3LYP/pcseg-2
 -------------------------
 Charge =  0 Multiplicity = 1

 SCF Done:  E(RB3LYP) =  -134.014305495     A.U. after    1 cycles

  Exact polarizability:  43.684   1.777  32.992   0.000   0.000  25.304
 Approx polarizability:  62.663  -1.381  42.716   0.000  -0.000  35.137

                      1                      2                      3
                     A"                     A'                     A"
 Frequencies --    187.4158               492.1160               682.0463
 Red. masses --      1.2322                 2.3771                 1.1129
 Frc consts  --      0.0255                 0.3392                 0.3050
 IR Inten    --      1.8348                17.7583                54.5953

                      4                      5                      6
                     A'                     A'                     A"
 Frequencies --    921.2824              1058.1873              1075.2236
 Red. masses --      2.1617                 1.4352                 1.3296
 Frc consts  --      1.0810                 0.9469                 0.9057
 IR Inten    --      9.2120                32.2483                14.7874

                      7                      8                      9
                     A"                     A'                     A'
 Frequencies --   1130.4247              1271.2750              1391.0936
 Red. masses --      1.3728                 1.2301                 1.2447
 Frc consts  --      1.0336                 1.1713                 1.4191
 IR Inten    --      3.7486                30.2056                13.8541

                     10                     11                     12
                     A'                     A'                     A"
 Frequencies --   1431.1837              1469.0000              1476.5144
 Red. masses --      1.4993                 1.0550                 1.0458
 Frc consts  --      1.8094                 1.3414                 1.3433
 IR Inten    --     20.8603                17.0720                 9.6278

                     13                     14                     15
                     A'                     A'                     A'
 Frequencies --   1721.7884              2993.1008              3026.3856
 Red. masses --      6.0167                 1.0843                 1.0386
 Frc consts  --     10.5092                 5.7232                 5.6046
 IR Inten    --     79.4192                63.7463                11.6618

                     16                     17                     18
                     A"                     A'                     A'
 Frequencies --   3072.9701              3130.7669              3451.8001
 Red. masses --      1.0984                 1.1010                 1.0755
 Frc consts  --      6.1113                 6.3580                 7.5502
 IR Inten    --     12.7279                11.0803                 0.8242

 - Thermochemistry -
 -------------------
 Temperature   298.150 Kelvin.  Pressure   1.00000 Atm.
 Atom     1 has atomic number  6 and mass  12.00000

 Molecular mass:    43.04220 amu.
 Principal axes and moments of inertia in atomic units:
                           1         2         3
     Eigenvalues --    33.29711 184.16160 206.39117
           X            0.91985  -0.39227   0.00000
           Y            0.39227   0.91985   0.00000
           Z            0.00000   0.00000   1.00000
 This molecule is an asymmetric top.
 Rotational symmetry number  1.
 Rotational temperatures (Kelvin)      2.60124     0.47031     0.41966
 Rotational constants (GHZ):          54.20114     9.79977     8.74428
 Zero-point vibrational energy     179335.6 (Joules/Mol)
                                   42.86224 (Kcal/Mol)
 Warning -- explicit consideration of   2 degrees of freedom as
           vibrations may cause significant error
 Vibrational temperatures:    269.65   708.05   981.31  1325.52  1522.50
          (Kelvin)           1547.01  1626.43  1829.08  2001.47  2059.15
                             2113.56  2124.37  2477.27  4306.40  4354.29
                             4421.32  4504.48  4966.37

 Zero-point correction=                           0.068305 (Hartree/Particle)
 Thermal correction to Energy=                    0.072237
 Thermal correction to Enthalpy=                  0.073181
 Thermal correction to Gibbs Free Energy=         0.043414
 Sum of electronic and zero-point Energies=           -133.946000
 Sum of electronic and thermal Energies=              -133.942068
 Sum of electronic and thermal Enthalpies=            -133.941124
 Sum of electronic and thermal Free Energies=         -133.970892

                     E (Thermal)             CV                S
                      KCal/Mol        Cal/Mol-Kelvin    Cal/Mol-Kelvin
 Total                   45.330             11.863             62.651
 Electronic               0.000              0.000              0.000
 Translational            0.889              2.981             37.205
 Rotational               0.889              2.981             21.764
 Vibrational             43.552              5.901              3.682
 Vibration     1          0.632              1.857              2.253
 Vibration     2          0.848              1.268              0.678

 Optimization completed.
    -- Stationary point found.
 Normal termination of Gaussian 16 at Fri Sep 29 22:44:48 2023.
 Gaussian 16:  ES64L-G16RevB.01 20-Dec-2017

 ---------------------------------
 # rohf/gen geom=check guess=check
 ---------------------------------

 ----------------------------
 ethanimine, ROHF/cc-pVTZ-F12
 ----------------------------
 Structure from the checkpoint file:  "ch3chnh.chk"
 Charge =  0 Multiplicity = 1

                         Standard orientation:
 ---------------------------------------------------------------------
 Center     Atomic      Atomic             Coordinates (Angstroms)
 Number     Number       Type             X           Y           Z
 ---------------------------------------------------------------------
      1          6           0       -1.030278   -0.636884    0.000000
      2          6           0        0.000000    0.445775    0.000000
      3          7           0        1.240598    0.191097    0.000000
      4          1           0       -0.554453   -1.614994    0.000000
      5          1           0       -1.676233   -0.546320    0.876807
      6          1           0       -1.676233   -0.546320   -0.876807
      7          1           0       -0.390573    1.470892    0.000000
      8          1           0        1.794974    1.045719    0.000000
 ---------------------------------------------------------------------

 SCF Done:  E(ROHF) =  -133.135717268     A.U. after   11 cycles

 The electronic state is 1-A'.
 Alpha  occ. eigenvalues --  -15.54839 -11.28377 -11.22611  -1.21012  -0.99382
 Alpha  occ. eigenvalues --   -0.77863  -0.69549  -0.58204  -0.56908  -0.54637
 Alpha  occ. eigenvalues --   -0.42952  -0.42021
 Alpha virt. eigenvalues --    0.04745   0.05217   0.06923   0.07496   0.09315
 Alpha virt. eigenvalues --    0.09565   0.10379   0.13477   0.14426   0.16619
 Alpha virt. eigenvalues --    0.17421   0.18522   0.21573   0.23075   0.23377

 Mulliken charges and spin densities:
               1          2
     1  C   -0.282975   0.000000
     2  C    0.290559   0.000000
     3  N   -0.620092   0.000000
     4  H    0.129479   0.000000
     5  H    0.079523   0.000000
     6  H    0.079523   0.000000
     7  H    0.098058   0.000000
     8  H    0.225925   0.000000
 Sum of Mulliken charges =  -0.00000   0.00000

 Dipole moment (field-independent basis, Debye):
    X=             -1.7470    Y=              1.4732    Z=              0.0000  Tot=              2.2853
 Quadrupole moment (field-independent basis, Debye-Ang):
   XX=            -20.1926   YY=            -17.7543   ZZ=            -20.1967
   XY=              2.5086   XZ=              0.0000   YZ=              0.0000

 Normal termination of Gaussian 16 at Fri Sep 29 22:45:28 2023.
