 Gaussian 16, Revision B.01,

 ---------------------------------------
 # b3lyp/gen opt freq CPHF(Grid=OneStep)
 ---------------------------------------

 -------------------------
 ethylidene, B3LYP/pcseg-2
 -------------------------
 Symbolic Z-matrix:
 Charge =  0 Multiplicity = 3

 SCF Done:  E(UB3LYP) =  -78.5113058722     A.U. after   12 cycles
 Optimization completed.
    -- Stationary point found.
 Normal termination of Gaussian 16 at Sat Sep 30 20:48:35 2023.

 ------------------------------------------------------------------
 #N Geom=AllCheck Guess=TCheck SCRF=Check GenChk UB3LYP/ChkBas Freq
 ------------------------------------------------------------------

 Structure from the checkpoint file:  "ch3ch.chk"
 -------------------------
 ethylidene, B3LYP/pcseg-2
 -------------------------
 Charge =  0 Multiplicity = 3

 SCF Done:  E(UB3LYP) =  -78.5113058722     A.U. after    1 cycles

  Exact polarizability:  22.133  -0.868  30.405   0.000   0.000  21.686
 Approx polarizability:  28.340  -0.977  35.988   0.000  -0.000  27.790

                      1                      2                      3
                     A"                     A'                     A"
 Frequencies --    180.5738               758.2030               994.2717
 Red. masses --      1.1164                 1.0622                 1.3194
 Frc consts  --      0.0214                 0.3598                 0.7685
 IR Inten    --     34.5378                11.5995                 1.2266

                      4                      5                      6
                     A'                     A'                     A'
 Frequencies --   1068.4085              1101.5563              1387.4684
 Red. masses --      1.5223                 4.2380                 1.2082
 Frc consts  --      1.0238                 3.0299                 1.3703
 IR Inten    --      1.8625                 0.0629                 1.6501

                      7                      8                      9
                     A"                     A'                     A'
 Frequencies --   1448.9593              1449.4443              2947.7341
 Red. masses --      1.0450                 1.0410                 1.0393
 Frc consts  --      1.2927                 1.2886                 5.3208
 IR Inten    --      7.0882                 6.4307                23.9439

                     10                     11                     12
                     A"                     A'                     A'
 Frequencies --   2981.9614              3048.3835              3216.5329
 Red. masses --      1.0980                 1.0892                 1.0909
 Frc consts  --      5.7527                 5.9635                 6.6499
 IR Inten    --     19.5815                10.6654                 4.8852

 - Thermochemistry -
 -------------------
 Temperature   298.150 Kelvin.  Pressure   1.00000 Atm.
 Atom     1 has atomic number  6 and mass  12.00000

 Molecular mass:    28.03130 amu.
 Principal axes and moments of inertia in atomic units:
                           1         2         3
     Eigenvalues --    12.91866  73.10165  74.75084
           X           -0.07122   0.99746   0.00000
           Y            0.99746   0.07122   0.00000
           Z           -0.00000  -0.00000   1.00000
 This molecule is an asymmetric top.
 Rotational symmetry number  1.
 Rotational temperatures (Kelvin)      6.70456     1.18484     1.15870
 Rotational constants (GHZ):         139.70031    24.68810    24.14342
 Zero-point vibrational energy     123116.7 (Joules/Mol)
                                   29.42559 (Kcal/Mol)
 Warning -- explicit consideration of   1 degrees of freedom as
           vibrations may cause significant error
 Vibrational temperatures:    259.81  1090.89  1430.54  1537.20  1584.89
          (Kelvin)           1996.26  2084.73  2085.43  4241.13  4290.38
                             4385.94  4627.87

 Zero-point correction=                           0.046893 (Hartree/Particle)
 Thermal correction to Energy=                    0.050519
 Thermal correction to Enthalpy=                  0.051463
 Thermal correction to Gibbs Free Energy=         0.023027
 Sum of electronic and zero-point Energies=            -78.464413
 Sum of electronic and thermal Energies=               -78.460787
 Sum of electronic and thermal Enthalpies=             -78.459843
 Sum of electronic and thermal Free Energies=          -78.488279

                     E (Thermal)             CV                S
                      KCal/Mol        Cal/Mol-Kelvin    Cal/Mol-Kelvin
 Total                   31.701              9.810             59.850
 Electronic               0.000              0.000              2.183
 Translational            0.889              2.981             35.927
 Rotational               0.889              2.981             18.896
 Vibrational             29.924              3.848              2.843
 Vibration     1          0.630              1.866              2.322

 Optimization completed.
    -- Stationary point found.
 Normal termination of Gaussian 16 at Sat Sep 30 20:49:48 2023.
 Gaussian 16:  ES64L-G16RevB.01 20-Dec-2017

 ---------------------------------
 # rohf/gen geom=check guess=check
 ---------------------------------

 ----------------------------
 ethylidene, ROHF/cc-pVTZ-F12
 ----------------------------
 Structure from the checkpoint file:  "ch3ch.chk"
 Charge =  0 Multiplicity = 3

                         Standard orientation:
 ---------------------------------------------------------------------
 Center     Atomic      Atomic             Coordinates (Angstroms)
 Number     Number       Type             X           Y           Z
 ---------------------------------------------------------------------
      1          6           0        0.046788   -0.609871    0.000000
      2          6           0        0.046788    0.849839    0.000000
      3          1           0       -0.717343    1.612369    0.000000
      4          1           0        1.066804   -1.003082    0.000000
      5          1           0       -0.455461   -1.024549    0.884770
      6          1           0       -0.455461   -1.024549   -0.884770
 ---------------------------------------------------------------------

 SCF Done:  E(ROHF) =  -77.9901598080     A.U. after   16 cycles

 The electronic state is 3-A".
 Alpha  occ. eigenvalues --  -11.22840 -11.22311  -0.99987  -0.75758  -0.57789
 Alpha  occ. eigenvalues --   -0.56172  -0.54382  -0.08489  -0.05616
 Alpha virt. eigenvalues --    0.05361   0.06258   0.07708   0.07839   0.10302
 Alpha virt. eigenvalues --    0.10721   0.10729   0.18449   0.21226   0.21732
 Alpha virt. eigenvalues --    0.23905   0.26204   0.31640   0.35887   0.36191

 Mulliken charges and spin densities:
               1          2
     1  C   -0.251999   0.016704
     2  C   -0.138011   1.890582
     3  H    0.140820   0.044550
     4  H    0.094859   0.004619
     5  H    0.077166   0.021772
     6  H    0.077166   0.021772
 Sum of Mulliken charges =  -0.00000   2.00000

 Dipole moment (field-independent basis, Debye):
    X=             -0.4909    Y=             -0.5343    Z=             -0.0000  Tot=              0.7255
 Quadrupole moment (field-independent basis, Debye-Ang):
   XX=            -13.6599   YY=            -13.8072   ZZ=            -14.4263
   XY=             -1.1259   XZ=              0.0000   YZ=              0.0000

 Normal termination of Gaussian 16 at Sat Sep 30 20:49:58 2023.
