 Gaussian 16, Revision B.01,

 ---------------------------------------
 # b3lyp/gen opt freq CPHF(Grid=OneStep)
 ---------------------------------------

 ------------------------------------
 1,1,1-trichloroethane, B3LYP/pcseg-2
 ------------------------------------
 Symbolic Z-matrix:
 Charge =  0 Multiplicity = 1

 SCF Done:  E(RB3LYP) =  -1458.75507343     A.U. after   12 cycles
 Optimization completed.
    -- Stationary point found.
 Normal termination of Gaussian 16 at Fri Sep 29 23:44:04 2023.

 ------------------------------------------------------------------
 #N Geom=AllCheck Guess=TCheck SCRF=Check GenChk RB3LYP/ChkBas Freq
 ------------------------------------------------------------------

 Structure from the checkpoint file:  "ch3ccl3.chk"
 ------------------------------------
 1,1,1-trichloroethane, B3LYP/pcseg-2
 ------------------------------------
 Charge =  0 Multiplicity = 1

 SCF Done:  E(RB3LYP) =  -1458.75507251     A.U. after    2 cycles

  Exact polarizability:  63.072   0.000  63.073   0.000  -0.000  53.394
 Approx polarizability:  97.687   0.000  97.687   0.000   0.000  76.123

                      1                      2                      3
                      E                      E                     A2
 Frequencies --    236.4084               236.4088               293.4615
 Red. masses --     10.2500                10.2499                 1.0182
 Frc consts  --      0.3375                 0.3375                 0.0517
 IR Inten    --      0.1224                 0.1224                 0.0000

                      4                      5                      6
                     A1                      E                      E
 Frequencies --    341.1663               342.5614               342.5625
 Red. masses --     13.7931                 4.2820                 4.2821
 Frc consts  --      0.9459                 0.2961                 0.2961
 IR Inten    --      0.9308                 2.2980                 2.2981

                      7                      8                      9
                     A1                      E                      E
 Frequencies --    517.8831               680.7297               680.7386
 Red. masses --      7.5246                 4.9779                 4.9778
 Frc consts  --      1.1890                 1.3591                 1.3591
 IR Inten    --     10.4109               132.3502               132.3576

                     10                     11                     12
                     A1                      E                      E
 Frequencies --   1065.1945              1101.1574              1101.1586
 Red. masses --      6.4488                 1.5143                 1.5143
 Frc consts  --      4.3111                 1.0818                 1.0818
 IR Inten    --     21.2844                54.1394                54.1457

                     13                     14                     15
                     A1                      E                      E
 Frequencies --   1419.2262              1480.1342              1480.1346
 Red. masses --      1.2211                 1.0417                 1.0417
 Frc consts  --      1.4491                 1.3447                 1.3447
 IR Inten    --      6.9847                 3.4679                 3.4679

                     16                     17                     18
                     A1                      E                      E
 Frequencies --   3060.7737              3142.1537              3142.1540
 Red. masses --      1.0328                 1.1041                 1.1041
 Frc consts  --      5.7006                 6.4229                 6.4229
 IR Inten    --      2.1496                 2.7608                 2.7611

 - Thermochemistry -
 -------------------
 Temperature   298.150 Kelvin.  Pressure   1.00000 Atm.
 Atom     1 has atomic number  6 and mass  12.00000

 Molecular mass:   131.93003 amu.
 Principal axes and moments of inertia in atomic units:
                           1         2         3
     Eigenvalues --   773.35684 773.356841078.41772
           X            0.70711   0.70711   0.00000
           Y           -0.70711   0.70711   0.00000
           Z            0.00000  -0.00000   1.00000
 This molecule is an oblate symmetric top.
 Rotational symmetry number  3.
 Warning -- assumption of classical behavior for rotation
           may cause significant error
 Rotational temperatures (Kelvin)      0.11200     0.11200     0.08032
 Rotational constants (GHZ):           2.33365     2.33365     1.67351
 Zero-point vibrational energy     123598.2 (Joules/Mol)
                                   29.54068 (Kcal/Mol)
 Warning -- explicit consideration of   7 degrees of freedom as
           vibrations may cause significant error
 Vibrational temperatures:    340.14   340.14   422.23   490.86   492.87
          (Kelvin)            492.87   745.12   979.42   979.43  1532.58
                             1584.32  1584.32  2041.95  2129.58  2129.58
                             4403.77  4520.86  4520.86

 Zero-point correction=                           0.047076 (Hartree/Particle)
 Thermal correction to Energy=                    0.053007
 Thermal correction to Enthalpy=                  0.053952
 Thermal correction to Gibbs Free Energy=         0.017579
 Sum of electronic and zero-point Energies=          -1458.707996
 Sum of electronic and thermal Energies=             -1458.702065
 Sum of electronic and thermal Enthalpies=           -1458.701121
 Sum of electronic and thermal Free Energies=        -1458.737493

                     E (Thermal)             CV                S
                      KCal/Mol        Cal/Mol-Kelvin    Cal/Mol-Kelvin
 Total                   33.263             20.064             76.552
 Electronic               0.000              0.000              0.000
 Translational            0.889              2.981             40.544
 Rotational               0.889              2.981             25.775
 Vibrational             31.485             14.103             10.233
 Vibration     1          0.655              1.785              1.830
 Vibration     2          0.655              1.785              1.830
 Vibration     3          0.688              1.686              1.454
 Vibration     4          0.721              1.593              1.207
 Vibration     5          0.722              1.590              1.200
 Vibration     6          0.722              1.590              1.200
 Vibration     7          0.873              1.210              0.615

 Optimization completed.
    -- Stationary point found.
 Normal termination of Gaussian 16 at Fri Sep 29 23:46:48 2023.
 Gaussian 16:  ES64L-G16RevB.01 20-Dec-2017

 ---------------------------------
 # rohf/gen geom=check guess=check
 ---------------------------------

 ---------------------------------------
 1,1,1-trichloroethane, ROHF/cc-pVTZ-F12
 ---------------------------------------
 Structure from the checkpoint file:  "ch3ccl3.chk"
 Charge =  0 Multiplicity = 1

                         Standard orientation:
 ---------------------------------------------------------------------
 Center     Atomic      Atomic             Coordinates (Angstroms)
 Number     Number       Type             X           Y           Z
 ---------------------------------------------------------------------
      1          6           0        0.000000    0.000000    1.769334
      2          6           0        0.000000    0.000000    0.255328
      3          1           0        0.000000   -1.025069    2.133291
      4          1           0       -0.887736    0.512535    2.133291
      5          1           0        0.887736    0.512535    2.133291
      6         17           0        0.000000    1.687706   -0.363683
      7         17           0        1.461596   -0.843853   -0.363683
      8         17           0       -1.461596   -0.843853   -0.363683
 ---------------------------------------------------------------------

 SCF Done:  E(ROHF) =  -1456.06999845     A.U. after   11 cycles

 The electronic state is 1-A1.
 Alpha  occ. eigenvalues -- -104.85758-104.85758-104.85758 -11.44010 -11.26113
 Alpha  occ. eigenvalues --  -10.58283 -10.58283 -10.58282  -8.04964  -8.04964
 Alpha  occ. eigenvalues --   -8.04964  -8.04797  -8.04796  -8.04796  -8.04793
 Alpha  occ. eigenvalues --   -8.04793  -8.04793  -1.23697  -1.10475  -1.10475
 Alpha  occ. eigenvalues --   -1.01786  -0.80384  -0.65326  -0.65326  -0.62895
 Alpha  occ. eigenvalues --   -0.56151  -0.56151  -0.49472  -0.49472  -0.46662
 Alpha  occ. eigenvalues --   -0.45721  -0.45721  -0.44564
 Alpha virt. eigenvalues --    0.03965   0.05927   0.06579   0.06579   0.08418
 Alpha virt. eigenvalues --    0.08418   0.09860   0.11232   0.11232   0.11237
 Alpha virt. eigenvalues --    0.14221   0.14221   0.14599   0.14718   0.17202

 Mulliken charges and spin densities:
               1          2
     1  C   -0.294429   0.000000
     2  C   -0.189905   0.000000
     3  H    0.140507   0.000000
     4  H    0.140507   0.000000
     5  H    0.140507   0.000000
     6  Cl   0.020937   0.000000
     7  Cl   0.020937   0.000000
     8  Cl   0.020937   0.000000
 Sum of Mulliken charges =  -0.00000   0.00000

 Dipole moment (field-independent basis, Debye):
    X=              0.0000    Y=              0.0000    Z=              1.9873  Tot=              1.9873
 Quadrupole moment (field-independent basis, Debye-Ang):
   XX=            -51.5129   YY=            -51.5129   ZZ=            -47.9302
   XY=             -0.0000   XZ=             -0.0000   YZ=             -0.0000

 Normal termination of Gaussian 16 at Fri Sep 29 23:47:36 2023.
