 Gaussian 16, Revision B.01,
 Gaussian 16:  ES64L-G16RevB.01 20-Dec-2017

 -------------------------------
 # b3lyp/gen opt freq symm=loose
 -------------------------------

 ----------------------------
 2-methylallyl, B3LYP/pcseg-2
 ----------------------------
 Symbolic Z-matrix:
 Charge =  0 Multiplicity = 2

 SCF Done:  E(UB3LYP) =  -156.644363444     A.U. after   15 cycles
 Optimization completed.
    -- Stationary point found.
 Normal termination of Gaussian 16 at Tue Sep 12 10:37:00 2023.

 ------------------------------------------------------------------
 #N Geom=AllCheck Guess=TCheck SCRF=Check GenChk UB3LYP/ChkBas Freq
 ------------------------------------------------------------------

 Structure from the checkpoint file:  "/wrk/irikura/Gau-331552.chk"
 ----------------------------
 2-methylallyl, B3LYP/pcseg-2
 ----------------------------
 Charge =  0 Multiplicity = 2

                         Standard orientation:
 ---------------------------------------------------------------------
 Center     Atomic      Atomic             Coordinates (Angstroms)
 Number     Number       Type             X           Y           Z
 ---------------------------------------------------------------------
      1          6           0        1.253328    0.688973    0.000000
      2          6           0        0.000000    0.092220    0.000000
      3          6           0       -0.089953   -1.419404    0.000000
      4          6           0       -1.155311    0.847450    0.000000
      5          1           0       -2.132961    0.387199    0.000000
      6          1           0       -1.113918    1.928194    0.000000
      7          1           0        2.160057    0.100397    0.000000
      8          1           0        1.357706    1.765070    0.000000
      9          1           0       -1.124638   -1.758141    0.000000
     10          1           0        0.402684   -1.839076    0.878665
     11          1           0        0.402684   -1.839076   -0.878665
 ---------------------------------------------------------------------

 SCF Done:  E(UB3LYP) =  -156.644363444     A.U. after    1 cycles

 The electronic state is 2-A".
 Alpha  occ. eigenvalues --  -10.18529 -10.17479 -10.17404 -10.16775  -0.81794
 Alpha  occ. eigenvalues --   -0.69560  -0.68390  -0.53354  -0.46768  -0.46031
 Alpha  occ. eigenvalues --   -0.42171  -0.38568  -0.37883  -0.35844  -0.31023
 Alpha  occ. eigenvalues --   -0.20179
 Alpha virt. eigenvalues --    0.01744   0.02000   0.04765   0.05224   0.06966
 Alpha virt. eigenvalues --    0.08078   0.09403   0.11341   0.11958   0.15238
 Alpha virt. eigenvalues --    0.16247   0.19980   0.20357   0.22251   0.24249

  Beta  occ. eigenvalues --  -10.18859 -10.16758 -10.16523 -10.16519  -0.81138
  Beta  occ. eigenvalues --   -0.68986  -0.66021  -0.52782  -0.46348  -0.45598
  Beta  occ. eigenvalues --   -0.42126  -0.38091  -0.37620  -0.35664  -0.27921
  Beta virt. eigenvalues --   -0.08590   0.01843   0.03254   0.04853   0.05339
  Beta virt. eigenvalues --    0.07070   0.08193   0.09748   0.11386   0.11925
  Beta virt. eigenvalues --    0.15272   0.17335   0.20382   0.22221   0.22719

 Mulliken charges and spin densities:
               1          2
     1  C   -0.164781   0.709892
     2  C    0.102031  -0.263702
     3  C   -0.083328   0.014536
     4  C   -0.140764   0.654244
     5  H    0.044651  -0.026480
     6  H    0.045517  -0.023041
     7  H    0.051983  -0.027948
     8  H    0.044677  -0.025037
     9  H    0.022281  -0.001799
    10  H    0.038867  -0.005332
    11  H    0.038867  -0.005332
 Sum of Mulliken charges =  -0.00000   1.00000

 Dipole moment (field-independent basis, Debye):
    X=              0.0233    Y=             -0.3338    Z=              0.0000  Tot=              0.3346
 Quadrupole moment (field-independent basis, Debye-Ang):
   XX=            -25.2181   YY=            -24.9166   ZZ=            -28.8117
   XY=             -0.0217   XZ=              0.0000   YZ=             -0.0000

  Exact polarizability:  65.949  -1.690  51.771  -0.000   0.000  35.453
 Approx polarizability:  97.080  -3.701  65.650   0.000  -0.000  50.488

                      1                      2                      3
                     A"                     A'                     A'
 Frequencies --     31.1705               407.6065               438.3344
 Red. masses --      1.0528                 2.1613                 2.0582
 Frc consts  --      0.0006                 0.2116                 0.2330
 IR Inten    --      0.2232                 0.3078                 1.1814

                      4                      5                      6
                     A"                     A"                     A"
 Frequencies --    482.4045               533.1882               564.7737
 Red. masses --      2.2944                 1.0214                 1.0219
 Frc consts  --      0.3146                 0.1711                 0.1921
 IR Inten    --     18.5535                 0.6102                 1.3050

                      7                      8                      9
                     A"                     A"                     A'
 Frequencies --    775.7411               816.1658               848.4153
 Red. masses --      1.3316                 1.4450                 3.2360
 Frc consts  --      0.4721                 0.5671                 1.3724
 IR Inten    --     10.6291                66.1444                 0.5305

                     10                     11                     12
                     A'                     A'                     A'
 Frequencies --    975.1520              1022.4300              1051.5543
 Red. masses --      1.2193                 1.6336                 1.6719
 Frc consts  --      0.6831                 1.0061                 1.0892
 IR Inten    --      0.7049                 0.4532                 0.0177

                     13                     14                     15
                     A"                     A'                     A'
 Frequencies --   1059.3337              1332.8099              1377.1353
 Red. masses --      1.4802                 2.7595                 1.8629
 Frc consts  --      0.9787                 2.8881                 2.0816
 IR Inten    --      0.2880                 1.5867                 1.0201

                     16                     17                     18
                     A'                     A'                     A"
 Frequencies --   1416.7078              1487.0086              1487.4192
 Red. masses --      1.4016                 1.1865                 1.0434
 Frc consts  --      1.6574                 1.5458                 1.3601
 IR Inten    --      5.4218                12.5431                 7.5074

                     19                     20                     21
                     A'                     A'                     A'
 Frequencies --   1502.0766              1534.9554              3033.9973
 Red. masses --      1.1658                 1.5383                 1.0365
 Frc consts  --      1.5497                 2.1354                 5.6216
 IR Inten    --      1.6221                 8.8130                21.5669

                     22                     23                     24
                     A"                     A'                     A'
 Frequencies --   3084.6738              3111.3145              3140.6419
 Red. masses --      1.1005                 1.1008                 1.0515
 Frc consts  --      6.1696                 6.2786                 6.1106
 IR Inten    --     14.7207                14.9758                11.7043

                     25                     26                     27
                     A'                     A'                     A'
 Frequencies --   3147.9110              3234.6130              3236.7051
 Red. masses --      1.0558                 1.1174                 1.1170
 Frc consts  --      6.1640                 6.8884                 6.8948
 IR Inten    --      4.5248                 4.2841                16.8042

 - Thermochemistry -
 -------------------
 Temperature   298.150 Kelvin.  Pressure   1.00000 Atm.
 Atom     1 has atomic number  6 and mass  12.00000

 Molecular mass:    55.05478 amu.
 Principal axes and moments of inertia in atomic units:
                           1         2         3
     Eigenvalues --   180.35845 203.95599 373.19995
           X            0.04258   0.99909   0.00000
           Y            0.99909  -0.04258   0.00000
           Z            0.00000   0.00000   1.00000
 This molecule is an asymmetric top.
 Rotational symmetry number  1.
 Rotational temperatures (Kelvin)      0.48023     0.42467     0.23208
 Rotational constants (GHZ):          10.00641     8.84868     4.83586
 Zero-point vibrational energy     246037.4 (Joules/Mol)
                                   58.80435 (Kcal/Mol)
 Warning -- explicit consideration of   6 degrees of freedom as
           vibrations may cause significant error
 Vibrational temperatures:     44.85   586.45   630.67   694.07   767.14
          (Kelvin)            812.58  1116.12  1174.28  1220.68  1403.03
                             1471.05  1512.95  1524.14  1917.62  1981.39
                             2038.33  2139.47  2140.06  2161.15  2208.46
                             4365.25  4438.16  4476.49  4518.68  4529.14
                             4653.89  4656.90

 Zero-point correction=                           0.093711 (Hartree/Particle)
 Thermal correction to Energy=                    0.099016
 Thermal correction to Enthalpy=                  0.099960
 Thermal correction to Gibbs Free Energy=         0.064892
 Sum of electronic and zero-point Energies=           -156.550653
 Sum of electronic and thermal Energies=              -156.545348
 Sum of electronic and thermal Enthalpies=            -156.544403
 Sum of electronic and thermal Free Energies=         -156.579471

                     E (Thermal)             CV                S
                      KCal/Mol        Cal/Mol-Kelvin    Cal/Mol-Kelvin
 Total                   62.133             18.293             73.807
 Electronic               0.000              0.000              1.377
 Translational            0.889              2.981             37.939
 Rotational               0.889              2.981             24.133
 Vibrational             60.356             12.332             10.358
 Vibration     1          0.594              1.983              5.753
 Vibration     2          0.772              1.454              0.935
 Vibration     3          0.799              1.387              0.832
 Vibration     4          0.839              1.289              0.704
 Vibration     5          0.888              1.177              0.580
 Vibration     6          0.921              1.107              0.514

 Optimization completed.
    -- Stationary point found.
 Normal termination of Gaussian 16 at Tue Sep 12 10:39:37 2023.
