 Gaussian 16, Revision B.01,

 ---------------------------------------
 # b3lyp/gen opt freq CPHF(Grid=OneStep)
 ---------------------------------------

 -----------------------------
 hydroxyacetone, B3LYP/pcseg-2
 -----------------------------
 Symbolic Z-matrix:
 Charge =  0 Multiplicity = 1

 SCF Done:  E(RB3LYP) =  -268.483177110     A.U. after   13 cycles
 Optimization completed.
    -- Stationary point found.
 Normal termination of Gaussian 16 at Fri Sep 29 22:18:32 2023.

 ------------------------------------------------------------------
 #N Geom=AllCheck Guess=TCheck SCRF=Check GenChk RB3LYP/ChkBas Freq
 ------------------------------------------------------------------

 Structure from the checkpoint file:  "ch3coch2oh.chk"
 -----------------------------
 hydroxyacetone, B3LYP/pcseg-2
 -----------------------------
 Charge =  0 Multiplicity = 1

 SCF Done:  E(RB3LYP) =  -268.483177110     A.U. after    1 cycles

  Exact polarizability:  48.098   0.374  50.197  -0.000  -0.000  34.348
 Approx polarizability:  61.756   5.604  70.357  -0.000  -0.000  49.228

                      1                      2                      3
                     A"                     A"                     A"
 Frequencies --     46.1883               142.8424               207.5036
 Red. masses --      2.6821                 1.0495                 1.0738
 Frc consts  --      0.0034                 0.0126                 0.0272
 IR Inten    --     28.6040                 0.1751               110.5262

                      4                      5                      6
                     A'                     A"                     A'
 Frequencies --    264.4243               480.8228               496.3024
 Red. masses --      3.6188                 2.1904                 2.9546
 Frc consts  --      0.1491                 0.2984                 0.4288
 IR Inten    --     11.6054                 3.6337                12.5703

                      7                      8                      9
                     A'                     A'                     A"
 Frequencies --    508.4812               759.8291               866.2588
 Red. masses --      7.7601                 3.5033                 1.3171
 Frc consts  --      1.1821                 1.1917                 0.5823
 IR Inten    --      5.3053                 0.2671                 2.0801

                     10                     11                     12
                     A'                     A'                     A"
 Frequencies --    978.9971              1081.0098              1092.8286
 Red. masses --      1.7433                 6.0033                 2.0230
 Frc consts  --      0.9844                 4.1333                 1.4235
 IR Inten    --     24.2616                68.9035                 0.2612

                     13                     14                     15
                     A'                     A"                     A'
 Frequencies --   1183.4324              1254.0548              1263.1409
 Red. masses --      1.4483                 1.0985                 1.7828
 Frc consts  --      1.1951                 1.0179                 1.6759
 IR Inten    --    106.2764                 0.7253                61.9624

                     16                     17                     18
                     A'                     A'                     A'
 Frequencies --   1387.7441              1420.4041              1457.3741
 Red. masses --      1.3138                 1.4569                 1.0663
 Frc consts  --      1.4907                 1.7319                 1.3343
 IR Inten    --     37.7534                 4.9904                16.8478

                     19                     20                     21
                     A"                     A'                     A'
 Frequencies --   1464.6328              1481.7578              1783.8306
 Red. masses --      1.0492                 1.0873                10.7760
 Frc consts  --      1.3261                 1.4066                20.2029
 IR Inten    --     10.6959                12.4611               178.3750

                     22                     23                     24
                     A'                     A"                     A'
 Frequencies --   3001.7032              3036.4224              3044.2442
 Red. masses --      1.0552                 1.1060                 1.0355
 Frc consts  --      5.6018                 6.0081                 5.6539
 IR Inten    --     28.3583                17.7206                 0.5708

                     25                     26                     27
                     A"                     A'                     A'
 Frequencies --   3099.1826              3151.0249              3847.0614
 Red. masses --      1.0974                 1.1044                 1.0669
 Frc consts  --      6.2104                 6.4605                 9.3029
 IR Inten    --      3.7972                 8.2224                42.4572

 - Thermochemistry -
 -------------------
 Temperature   298.150 Kelvin.  Pressure   1.00000 Atm.
 Atom     1 has atomic number  6 and mass  12.00000

 Molecular mass:    74.03678 amu.
 Principal axes and moments of inertia in atomic units:
                           1         2         3
     Eigenvalues --   208.39600 442.71196 628.92856
           X           -0.14883   0.98886   0.00000
           Y            0.98886   0.14883   0.00000
           Z           -0.00000   0.00000   1.00000
 This molecule is an asymmetric top.
 Rotational symmetry number  1.
 Rotational temperatures (Kelvin)      0.41562     0.19564     0.13772
 Rotational constants (GHZ):           8.66015     4.07656     2.86955
 Zero-point vibrational energy     232084.5 (Joules/Mol)
                                   55.46953 (Kcal/Mol)
 Warning -- explicit consideration of   7 degrees of freedom as
           vibrations may cause significant error
 Vibrational temperatures:     66.45   205.52   298.55   380.45   691.80
          (Kelvin)            714.07   731.59  1093.22  1246.35  1408.56
                             1555.33  1572.34  1702.70  1804.31  1817.38
                             1996.65  2043.64  2096.84  2107.28  2131.92
                             2566.53  4318.78  4368.73  4379.99  4459.03
                             4533.62  5535.06

 Zero-point correction=                           0.088396 (Hartree/Particle)
 Thermal correction to Energy=                    0.094749
 Thermal correction to Enthalpy=                  0.095693
 Thermal correction to Gibbs Free Energy=         0.058318
 Sum of electronic and zero-point Energies=           -268.394781
 Sum of electronic and thermal Energies=              -268.388428
 Sum of electronic and thermal Enthalpies=            -268.387484
 Sum of electronic and thermal Free Energies=         -268.424859

                     E (Thermal)             CV                S
                      KCal/Mol        Cal/Mol-Kelvin    Cal/Mol-Kelvin
 Total                   59.456             20.494             78.661
 Electronic               0.000              0.000              0.000
 Translational            0.889              2.981             38.822
 Rotational               0.889              2.981             25.565
 Vibrational             57.678             14.533             14.274
 Vibration     1          0.595              1.979              4.974
 Vibration     2          0.616              1.910              2.765
 Vibration     3          0.641              1.829              2.066
 Vibration     4          0.671              1.738              1.632
 Vibration     5          0.837              1.293              0.708
 Vibration     6          0.852              1.258              0.667
 Vibration     7          0.864              1.231              0.637

 Optimization completed.
    -- Stationary point found.
 Normal termination of Gaussian 16 at Fri Sep 29 22:25:20 2023.
 Gaussian 16:  ES64L-G16RevB.01 20-Dec-2017

 ---------------------------------
 # rohf/gen geom=check guess=check
 ---------------------------------

 --------------------------------
 hydroxyacetone, ROHF/cc-pVTZ-F12
 --------------------------------
 Structure from the checkpoint file:  "ch3coch2oh.chk"
 Charge =  0 Multiplicity = 1

                         Standard orientation:
 ---------------------------------------------------------------------
 Center     Atomic      Atomic             Coordinates (Angstroms)
 Number     Number       Type             X           Y           Z
 ---------------------------------------------------------------------
      1          6           0       -0.000000    0.640598    0.000000
      2          6           0        0.903798   -0.588146    0.000000
      3          6           0       -1.489462    0.429343    0.000000
      4          8           0        0.513086    1.735199    0.000000
      5          8           0        0.142620   -1.786042    0.000000
      6          1           0        1.545825   -0.511761    0.883759
      7          1           0        1.545825   -0.511761   -0.883759
      8          1           0       -1.992419    1.392133    0.000000
      9          1           0       -1.784412   -0.157033    0.871568
     10          1           0       -1.784412   -0.157033   -0.871568
     11          1           0        0.737928   -2.538565    0.000000
 ---------------------------------------------------------------------

 SCF Done:  E(ROHF) =  -266.933052655     A.U. after   11 cycles

 The electronic state is 1-A'.
 Alpha  occ. eigenvalues --  -20.57889 -20.54504 -11.33393 -11.29680 -11.22867
 Alpha  occ. eigenvalues --   -1.39626  -1.37917  -1.02737  -0.95988  -0.74570
 Alpha  occ. eigenvalues --   -0.72087  -0.66400  -0.65894  -0.61143  -0.58283
 Alpha  occ. eigenvalues --   -0.55721  -0.54069  -0.51151  -0.46058  -0.41575
 Alpha virt. eigenvalues --    0.03914   0.04965   0.06450   0.06925   0.08075
 Alpha virt. eigenvalues --    0.08488   0.09159   0.10763   0.10846   0.12256
 Alpha virt. eigenvalues --    0.14001   0.15969   0.17233   0.18367   0.18651

 Mulliken charges and spin densities:
               1          2
     1  C    0.592012   0.000000
     2  C    0.095938   0.000000
     3  C   -0.383489   0.000000
     4  O   -0.632426   0.000000
     5  O   -0.742904   0.000000
     6  H    0.115402   0.000000
     7  H    0.115402   0.000000
     8  H    0.149233   0.000000
     9  H    0.124849   0.000000
    10  H    0.124849   0.000000
    11  H    0.441133   0.000000
 Sum of Mulliken charges =  -0.00000   0.00000

 Dipole moment (field-independent basis, Debye):
    X=              0.1937    Y=             -3.1400    Z=              0.0000  Tot=              3.1460
 Quadrupole moment (field-independent basis, Debye-Ang):
   XX=            -27.6870   YY=            -34.1208   ZZ=            -29.4811
   XY=             -6.3610   XZ=              0.0000   YZ=             -0.0000

 Normal termination of Gaussian 16 at Fri Sep 29 22:27:55 2023.
