 Gaussian 16, Revision B.01,

 ---------------------------------------
 # b3lyp/gen opt freq CPHF(Grid=OneStep)
 ---------------------------------------

 ------------------------
 2-butynyl, B3LYP/pcseg-2
 ------------------------
 Symbolic Z-matrix:
 Charge =  0 Multiplicity = 2

 SCF Done:  E(UB3LYP) =  -155.394744530     A.U. after   17 cycles
 Optimization completed.
    -- Stationary point found.
 Normal termination of Gaussian 16 at Fri Sep 29 19:37:42 2023.

 ------------------------------------------------------------------
 #N Geom=AllCheck Guess=TCheck SCRF=Check GenChk UB3LYP/ChkBas Freq
 ------------------------------------------------------------------

 Structure from the checkpoint file:  "ch3ccch2.chk"
 ------------------------
 2-butynyl, B3LYP/pcseg-2
 ------------------------
 Charge =  0 Multiplicity = 2

 SCF Done:  E(UB3LYP) =  -155.394744530     A.U. after    1 cycles

  Exact polarizability:  31.890  -0.893  85.779   0.000   0.000  33.044
 Approx polarizability:  42.934  -1.234 126.763   0.000  -0.000  44.628

                      1                      2                      3
                     A"                     A'                     A"
 Frequencies --     45.2341               182.0169               207.5170
 Red. masses --      1.0083                 3.2171                 2.6970
 Frc consts  --      0.0012                 0.0628                 0.0684
 IR Inten    --      0.0290                 9.2669                 9.8888

                      4                      5                      6
                     A"                     A'                     A'
 Frequencies --    395.1267               427.9671               685.5851
 Red. masses --      3.7272                 5.3701                 1.3635
 Frc consts  --      0.3428                 0.5795                 0.3776
 IR Inten    --      0.0276                 0.8209                53.8467

                      7                      8                      9
                     A'                     A'                     A"
 Frequencies --    772.5225              1032.4120              1034.4035
 Red. masses --      3.9046                 1.3574                 1.4440
 Frc consts  --      1.3729                 0.8525                 0.9104
 IR Inten    --      0.0605                 2.0795                 0.5490

                     10                     11                     12
                     A"                     A'                     A'
 Frequencies --   1053.9160              1261.5939              1415.5145
 Red. masses --      1.3825                 3.3181                 1.2490
 Frc consts  --      0.9047                 3.1115                 1.4745
 IR Inten    --      0.6134                 0.0945                 2.7899

                     13                     14                     15
                     A'                     A'                     A"
 Frequencies --   1470.4122              1471.5287              1471.7874
 Red. masses --      1.2564                 1.0697                 1.0380
 Frc consts  --      1.6005                 1.3647                 1.3248
 IR Inten    --      1.1705                 6.4653                 7.8073

                     16                     17                     18
                     A'                     A'                     A'
 Frequencies --   2141.1240              3009.8490              3058.3940
 Red. masses --     11.6708                 1.0362                 1.0969
 Frc consts  --     31.5236                 5.5309                 6.0450
 IR Inten    --     15.5995                27.9484                 9.6072

                     19                     20                     21
                     A"                     A'                     A"
 Frequencies --   3075.3755              3139.2410              3225.0915
 Red. masses --      1.1011                 1.0509                 1.1170
 Frc consts  --      6.1358                 6.1017                 6.8455
 IR Inten    --      8.2297                 7.1523                 2.1497

 - Thermochemistry -
 -------------------
 Temperature   298.150 Kelvin.  Pressure   1.00000 Atm.
 Atom     1 has atomic number  6 and mass  12.00000

 Molecular mass:    53.03913 amu.
 Principal axes and moments of inertia in atomic units:
                           1         2         3
     Eigenvalues --    17.38178 497.90371 504.11715
           X           -0.01333   0.00000   0.99991
           Y            0.99991   0.00000   0.01333
           Z           -0.00000   1.00000  -0.00000
 This molecule is an asymmetric top.
 Rotational symmetry number  1.
 Rotational temperatures (Kelvin)      4.98303     0.17396     0.17181
 Rotational constants (GHZ):         103.82947     3.62468     3.58000
 Zero-point vibrational energy     182888.8 (Joules/Mol)
                                   43.71146 (Kcal/Mol)
 Warning -- explicit consideration of   5 degrees of freedom as
           vibrations may cause significant error
 Vibrational temperatures:     65.08   261.88   298.57   568.50   615.75
          (Kelvin)            986.40  1111.49  1485.41  1488.28  1516.35
                             1815.15  2036.61  2115.60  2117.20  2117.57
                             3080.60  4330.50  4400.35  4424.78  4516.67
                             4640.19

 Zero-point correction=                           0.069659 (Hartree/Particle)
 Thermal correction to Energy=                    0.075409
 Thermal correction to Enthalpy=                  0.076353
 Thermal correction to Gibbs Free Energy=         0.041043
 Sum of electronic and zero-point Energies=           -155.325086
 Sum of electronic and thermal Energies=              -155.319336
 Sum of electronic and thermal Enthalpies=            -155.318392
 Sum of electronic and thermal Free Energies=         -155.353702

                     E (Thermal)             CV                S
                      KCal/Mol        Cal/Mol-Kelvin    Cal/Mol-Kelvin
 Total                   47.320             17.609             74.316
 Electronic               0.000              0.000              1.377
 Translational            0.889              2.981             37.828
 Rotational               0.889              2.981             22.994
 Vibrational             45.542             11.647             12.117
 Vibration     1          0.595              1.979              5.016
 Vibration     2          0.630              1.864              2.308
 Vibration     3          0.641              1.829              2.065
 Vibration     4          0.762              1.481              0.981
 Vibration     5          0.789              1.409              0.865

 Optimization completed.
    -- Stationary point found.
 Normal termination of Gaussian 16 at Fri Sep 29 19:42:06 2023.
 Gaussian 16:  ES64L-G16RevB.01 20-Dec-2017

 ---------------------------------
 # rohf/gen geom=check guess=check
 ---------------------------------

 ---------------------------
 2-butynyl, ROHF/cc-pVTZ-F12
 ---------------------------
 Structure from the checkpoint file:  "ch3ccch2.chk"
 Charge =  0 Multiplicity = 2

                         Standard orientation:
 ---------------------------------------------------------------------
 Center     Atomic      Atomic             Coordinates (Angstroms)
 Number     Number       Type             X           Y           Z
 ---------------------------------------------------------------------
      1          6           0       -0.028027    1.964830    0.000000
      2          6           0       -0.000000    0.513760    0.000000
      3          6           0        0.011144   -0.708394   -0.000000
      4          6           0        0.025897   -2.073464   -0.000000
      5          1           0       -1.055970    2.338765    0.000000
      6          1           0        0.468887    2.371086    0.883517
      7          1           0        0.468887    2.371086   -0.883517
      8          1           0        0.032055   -2.630663   -0.926502
      9          1           0        0.032055   -2.630663    0.926502
 ---------------------------------------------------------------------

 SCF Done:  E(ROHF) =  -154.343118310     A.U. after   18 cycles

 The electronic state is 2-A'.
 Alpha  occ. eigenvalues --  -11.24765 -11.24199 -11.23253 -11.22355  -1.06637
 Alpha  occ. eigenvalues --   -0.99736  -0.89563  -0.66915  -0.61698  -0.60815
 Alpha  occ. eigenvalues --   -0.58704  -0.58510  -0.40459  -0.36690  -0.07649
 Alpha virt. eigenvalues --    0.04451   0.05915   0.06964   0.07479   0.07730
 Alpha virt. eigenvalues --    0.08039   0.08941   0.10223   0.13225   0.13556
 Alpha virt. eigenvalues --    0.16305   0.16775   0.17387   0.17737   0.19109

 Mulliken charges and spin densities:
               1          2
     1  C   -0.338091   0.002207
     2  C   -0.000450   0.171217
     3  C   -0.008703   0.016346
     4  C   -0.297755   0.764274
     5  H    0.109916   0.005244
     6  H    0.109186   0.001283
     7  H    0.109186   0.001283
     8  H    0.158356   0.019073
     9  H    0.158356   0.019073
 Sum of Mulliken charges =  -0.00000   1.00000

 Dipole moment (field-independent basis, Debye):
    X=             -0.0257    Y=              0.5790    Z=              0.0000  Tot=              0.5796
 Quadrupole moment (field-independent basis, Debye-Ang):
   XX=            -26.6536   YY=            -18.5560   ZZ=            -24.8146
   XY=             -0.1140   XZ=             -0.0000   YZ=             -0.0000

 Normal termination of Gaussian 16 at Fri Sep 29 19:43:49 2023.
