 Gaussian 16, Revision B.01,
 Gaussian 16:  ES64L-G16RevB.01 20-Dec-2017

 ---------------------------------
 # b3lyp/gen opt(cart,calcfc) freq
 ---------------------------------

 -----------------------
 2-butyne, B3LYP/pcseg-2
 -----------------------
 Symbolic Z-matrix:
 Charge =  0 Multiplicity = 1

 SCF Done:  E(RB3LYP) =  -156.046278529     A.U. after   10 cycles
 SCF Done:  E(RB3LYP) =  -156.046370676     A.U. after    7 cycles
 Optimization completed.
    -- Stationary point found.
 Normal termination of Gaussian 16 at Wed Jun 29 14:10:56 2022.

 ------------------------------------------------------------------
 #N Geom=AllCheck Guess=TCheck SCRF=Check GenChk RB3LYP/ChkBas Freq
 ------------------------------------------------------------------

 Structure from the checkpoint file:  "/wrk/irikura/Gau-7441.chk"
 -----------------------
 2-butyne, B3LYP/pcseg-2
 -----------------------
 Charge =  0 Multiplicity = 1

                         Standard orientation:
 ---------------------------------------------------------------------
 Center     Atomic      Atomic             Coordinates (Angstroms)
 Number     Number       Type             X           Y           Z
 ---------------------------------------------------------------------
      1          6           0        0.000000    0.000000    0.600425
      2          6           0        0.000000    0.000000   -0.600425
      3          6           0        0.000000    0.000000    2.056907
      4          6           0        0.000000    0.000000   -2.056907
      5          1           0        0.000000    1.017547    2.451532
      6          1           0       -0.881221   -0.508773    2.451532
      7          1           0        0.881221   -0.508773    2.451532
      8          1           0        0.000000    1.017547   -2.451532
      9          1           0        0.881221   -0.508773   -2.451532
     10          1           0       -0.881221   -0.508773   -2.451532
 ---------------------------------------------------------------------

 SCF Done:  E(RB3LYP) =  -156.046370676     A.U. after    1 cycles

 The electronic state is 1-A1'.
 Alpha  occ. eigenvalues --  -10.18643 -10.18643 -10.15802 -10.15545  -0.78468
 Alpha  occ. eigenvalues --   -0.74626  -0.67105  -0.48259  -0.43900  -0.43407
 Alpha  occ. eigenvalues --   -0.43407  -0.42117  -0.42117  -0.25471  -0.25471
 Alpha virt. eigenvalues --    0.01476   0.02798   0.04715   0.04715   0.07335
 Alpha virt. eigenvalues --    0.07335   0.09511   0.10933   0.10933   0.13182
 Alpha virt. eigenvalues --    0.18101   0.18101   0.19005   0.19005   0.21660

 Mulliken charges:
               1
     1  C   -0.058371
     2  C   -0.058371
     3  C   -0.084667
     4  C   -0.084667
     5  H    0.047679
     6  H    0.047679
     7  H    0.047679
     8  H    0.047679
     9  H    0.047679
    10  H    0.047679
 Sum of Mulliken charges =   0.00000

 Dipole moment (field-independent basis, Debye):
    X=             -0.0000    Y=             -0.0000    Z=             -0.0000  Tot=              0.0000
 Quadrupole moment (field-independent basis, Debye-Ang):
   XX=            -25.9441   YY=            -25.9441   ZZ=            -19.4307
   XY=              0.0000   XZ=              0.0000   YZ=              0.0000

  Exact polarizability:  35.032   0.000  35.033   0.000   0.000  72.718
 Approx polarizability:  48.000  -0.000  48.000   0.000  -0.000 102.696

                      1                      2                      3
                     A1"                    E'                     E'
 Frequencies --     12.4037               201.5714               201.5719
 Red. masses --      1.0078                 2.7952                 2.7952
 Frc consts  --      0.0001                 0.0669                 0.0669
 IR Inten    --      0.0000                13.2418                13.2418

                      4                      5                      6
                     E"                     E"                     A1'
 Frequencies --    402.3583               402.3583               724.4692
 Red. masses --      4.0246                 4.0246                 3.6573
 Frc consts  --      0.3839                 0.3839                 1.1310
 IR Inten    --      0.0000                 0.0000                 0.0000

                      7                      8                      9
                     E"                     E"                     E'
 Frequencies --   1048.8261              1048.8262              1066.3014
 Red. masses --      1.4237                 1.4237                 1.3720
 Frc consts  --      0.9228                 0.9228                 0.9191
 IR Inten    --      0.0000                 0.0000                 1.0414

                     10                     11                     12
                     E'                     A2"                    A2"
 Frequencies --   1066.3014              1168.3236              1417.4661
 Red. masses --      1.3720                 4.4837                 1.2882
 Frc consts  --      0.9191                 3.6059                 1.5249
 IR Inten    --      1.0414                 0.0378                 3.4085

                     13                     14                     15
                     A1'                    E'                     E'
 Frequencies --   1420.5293              1480.0807              1480.0809
 Red. masses --      1.2112                 1.0381                 1.0381
 Frc consts  --      1.4400                 1.3398                 1.3398
 IR Inten    --      0.0000                14.0154                14.0160

                     16                     17                     18
                     E"                     E"                     A1'
 Frequencies --   1480.0983              1480.0985              2357.5264
 Red. masses --      1.0405                 1.0405                11.7787
 Frc consts  --      1.3430                 1.3430                38.5710
 IR Inten    --      0.0000                 0.0000                 0.0000

                     19                     20                     21
                     A1'                    A2"                    E'
 Frequencies --   3025.2971              3025.9531              3079.7162
 Red. masses --      1.0340                 1.0344                 1.1008
 Frc consts  --      5.5756                 5.5802                 6.1516
 IR Inten    --      0.0000                66.0937                21.5127

                     22                     23                     24
                     E'                     E"                     E"
 Frequencies --   3079.7165              3080.7570              3080.7573
 Red. masses --      1.1008                 1.1008                 1.1008
 Frc consts  --      6.1516                 6.1557                 6.1557
 IR Inten    --     21.5125                 0.0000                 0.0000

 - Thermochemistry -
 -------------------
 Temperature   298.150 Kelvin.  Pressure   1.00000 Atm.
 Atom     1 has atomic number  6 and mass  12.00000

 Molecular mass:    54.04695 amu.
 Principal axes and moments of inertia in atomic units:
                           1         2         3
     Eigenvalues --    22.35851 534.46605 534.46605
           X           -0.00000   0.74302  -0.66927
           Y           -0.00000   0.66927   0.74302
           Z            1.00000   0.00000  -0.00000
 This molecule is a prolate symmetric top.
 Rotational symmetry number  6.
 Rotational temperatures (Kelvin)      3.87387     0.16206     0.16206
 Rotational constants (GHZ):          80.71831     3.37672     3.37672
 Zero-point vibrational energy     220300.6 (Joules/Mol)
                                   52.65311 (Kcal/Mol)
 Warning -- explicit consideration of   5 degrees of freedom as
           vibrations may cause significant error
 Vibrational temperatures:     17.85   290.02   290.02   578.90   578.90
          (Kelvin)           1042.35  1509.03  1509.03  1534.17  1534.17
                             1680.96  2039.42  2043.82  2129.51  2129.51
                             2129.53  2129.53  3391.95  4352.73  4353.67
                             4431.02  4431.03  4432.52  4432.52

 Zero-point correction=                           0.083908 (Hartree/Particle)
 Thermal correction to Energy=                    0.089663
 Thermal correction to Enthalpy=                  0.090607
 Thermal correction to Gibbs Free Energy=         0.056335
 Sum of electronic and zero-point Energies=           -155.962463
 Sum of electronic and thermal Energies=              -155.956708
 Sum of electronic and thermal Enthalpies=            -155.955764
 Sum of electronic and thermal Free Energies=         -155.990035

                     E (Thermal)             CV                S
                      KCal/Mol        Cal/Mol-Kelvin    Cal/Mol-Kelvin
 Total                   56.264             17.360             72.131
 Electronic               0.000              0.000              0.000
 Translational            0.889              2.981             37.884
 Rotational               0.889              2.981             19.812
 Vibrational             54.487             11.399             14.435
 Vibration     1          0.593              1.987              7.583
 Vibration     2          0.638              1.838              2.119
 Vibration     3          0.638              1.838              2.119
 Vibration     4          0.768              1.465              0.954
 Vibration     5          0.768              1.465              0.954

 Optimization completed.
    -- Stationary point found.
 Normal termination of Gaussian 16 at Wed Jun 29 14:11:26 2022.
