 Gaussian 16, Revision B.01,

 ---------------------------------------
 # b3lyp/gen opt freq CPHF(Grid=OneStep)
 ---------------------------------------

 -------------------------
 ethylidyne, B3LYP/pcseg-2
 -------------------------
 Symbolic Z-matrix:
 Charge =  0 Multiplicity = 2

 SCF Done:  E(UB3LYP) =  -77.8602911227     A.U. after   15 cycles
 Optimization completed.
    -- Stationary point found.
 Normal termination of Gaussian 16 at Sat Sep 30 20:52:24 2023.

 ------------------------------------------------------------------
 #N Geom=AllCheck Guess=TCheck SCRF=Check GenChk UB3LYP/ChkBas Freq
 ------------------------------------------------------------------

 Structure from the checkpoint file:  "ch3c.chk"
 -------------------------
 ethylidyne, B3LYP/pcseg-2
 -------------------------
 Charge =  0 Multiplicity = 2

 SCF Done:  E(UB3LYP) =  -77.8602911227     A.U. after    1 cycles

  Exact polarizability:  21.791  -0.175  31.087   0.000  -0.000  23.757
 Approx polarizability:  32.045   0.890  39.294   0.000   0.000  28.479

                      1                      2                      3
                     A'                     A"                     A'
 Frequencies --    521.7888               855.6665              1104.7121
 Red. masses --      1.3079                 1.3104                 2.6230
 Frc consts  --      0.2098                 0.5653                 1.8860
 IR Inten    --      4.1654                 0.1280                16.1978

                      4                      5                      6
                     A"                     A'                     A'
 Frequencies --   1288.1505              1306.3699              1442.1613
 Red. masses --      1.0322                 1.4671                 1.1219
 Frc consts  --      1.0091                 1.4752                 1.3748
 IR Inten    --     23.2173                72.6310                 7.6943

                      7                      8                      9
                     A'                     A'                     A"
 Frequencies --   2879.4230              2968.6469              3000.9440
 Red. masses --      1.0510                 1.0674                 1.1063
 Frc consts  --      5.1339                 5.5422                 5.8700
 IR Inten    --     13.4267                22.4382                15.9536

 - Thermochemistry -
 -------------------
 Temperature   298.150 Kelvin.  Pressure   1.00000 Atm.
 Atom     1 has atomic number  6 and mass  12.00000

 Molecular mass:    27.02348 amu.
 Principal axes and moments of inertia in atomic units:
                           1         2         3
     Eigenvalues --    11.28177  61.13820  61.72908
           X           -0.00118   0.00000   1.00000
           Y            1.00000   0.00000   0.00118
           Z           -0.00000   1.00000   0.00000
 This molecule is an asymmetric top.
 Rotational symmetry number  1.
 Rotational temperatures (Kelvin)      7.67734     1.41669     1.40313
 Rotational constants (GHZ):         159.96975    29.51904    29.23648
 Zero-point vibrational energy      91920.2 (Joules/Mol)
                                   21.96946 (Kcal/Mol)
 Warning -- explicit consideration of   1 degrees of freedom as
           vibrations may cause significant error
 Vibrational temperatures:    750.74  1231.11  1589.43  1853.36  1879.57
          (Kelvin)           2074.95  4142.85  4271.22  4317.69

 Zero-point correction=                           0.035011 (Hartree/Particle)
 Thermal correction to Energy=                    0.038169
 Thermal correction to Enthalpy=                  0.039113
 Thermal correction to Gibbs Free Energy=         0.012271
 Sum of electronic and zero-point Energies=            -77.825281
 Sum of electronic and thermal Energies=               -77.822122
 Sum of electronic and thermal Enthalpies=             -77.821178
 Sum of electronic and thermal Free Energies=          -77.848020

                     E (Thermal)             CV                S
                      KCal/Mol        Cal/Mol-Kelvin    Cal/Mol-Kelvin
 Total                   23.951              8.394             56.493
 Electronic               0.000              0.000              1.377
 Translational            0.889              2.981             35.818
 Rotational               0.889              2.981             18.394
 Vibrational             22.174              2.432              0.904
 Vibration     1          0.877              1.202              0.606

 Optimization completed.
    -- Stationary point found.
 Normal termination of Gaussian 16 at Sat Sep 30 20:53:22 2023.
 Gaussian 16:  ES64L-G16RevB.01 20-Dec-2017

 ---------------------------------
 # rohf/gen geom=check guess=check
 ---------------------------------

 ----------------------------
 ethylidyne, ROHF/cc-pVTZ-F12
 ----------------------------
 Structure from the checkpoint file:  "ch3c.chk"
 Charge =  0 Multiplicity = 2

                         Standard orientation:
 ---------------------------------------------------------------------
 Center     Atomic      Atomic             Coordinates (Angstroms)
 Number     Number       Type             X           Y           Z
 ---------------------------------------------------------------------
      1          6           0        0.026109   -0.500534    0.000000
      2          6           0        0.026109    0.934450   -0.000000
      3          1           0       -1.084188   -0.599807    0.000000
      4          1           0        0.385438   -1.001847    0.908139
      5          1           0        0.385438   -1.001847   -0.908139
 ---------------------------------------------------------------------

 SCF Done:  E(ROHF) =  -77.3514277260     A.U. after   14 cycles

 The electronic state is 2-A".
 Alpha  occ. eigenvalues --  -11.27615 -11.24437  -1.04090  -0.71655  -0.59419
 Alpha  occ. eigenvalues --   -0.58297  -0.42665  -0.06632
 Alpha virt. eigenvalues --    0.05107   0.06075   0.07040   0.07271   0.07795
 Alpha virt. eigenvalues --    0.10688   0.11123   0.13068   0.19332   0.20129
 Alpha virt. eigenvalues --    0.21791   0.24474   0.31820   0.34222   0.34886

 Mulliken charges and spin densities:
               1          2
     1  C   -0.206776   0.019918
     2  C   -0.073385   0.941320
     3  H    0.099552  -0.000183
     4  H    0.090304   0.019473
     5  H    0.090304   0.019473
 Sum of Mulliken charges =  -0.00000   1.00000

 Dipole moment (field-independent basis, Debye):
    X=             -0.0724    Y=             -2.5146    Z=             -0.0000  Tot=              2.5156
 Quadrupole moment (field-independent basis, Debye-Ang):
   XX=            -12.1192   YY=            -17.3390   ZZ=            -13.7943
   XY=              0.2341   XZ=              0.0000   YZ=             -0.0000

 Normal termination of Gaussian 16 at Sat Sep 30 20:53:28 2023.
