 Gaussian 16, Revision B.01,
 Gaussian 16:  ES64L-G16RevB.01 20-Dec-2017

 ---------------------------------
 # b3lyp/gen opt(cart,calcfc) freq
 ---------------------------------

 ------------------------------
 1-chloropropyne, B3LYP/pcseg-2
 ------------------------------
 Symbolic Z-matrix:
 Charge =  0 Multiplicity = 1

 SCF Done:  E(RB3LYP) =  -576.333390991     A.U. after   13 cycles
 SCF Done:  E(RB3LYP) =  -576.333448449     A.U. after    9 cycles
 Optimization completed.
    -- Stationary point found.
 Normal termination of Gaussian 16 at Fri Jun 17 17:48:24 2022.

 ------------------------------------------------------------------
 #N Geom=AllCheck Guess=TCheck SCRF=Check GenChk RB3LYP/ChkBas Freq
 ------------------------------------------------------------------

 Structure from the checkpoint file:  "/wrk/irikura/Gau-9433.chk"
 ------------------------------
 1-chloropropyne, B3LYP/pcseg-2
 ------------------------------
 Charge =  0 Multiplicity = 1

                         Standard orientation:
 ---------------------------------------------------------------------
 Center     Atomic      Atomic             Coordinates (Angstroms)
 Number     Number       Type             X           Y           Z
 ---------------------------------------------------------------------
      1          6           0       -0.000000    0.000000   -1.086083
      2          6           0        0.000000   -0.000000    0.113379
      3          6           0       -0.000000    0.000000   -2.540980
      4         17           0        0.000000   -0.000000    1.757601
      5          1           0       -0.000000    1.018420   -2.932371
      6          1           0       -0.881978   -0.509210   -2.932371
      7          1           0        0.881978   -0.509210   -2.932371
 ---------------------------------------------------------------------

 SCF Done:  E(RB3LYP) =  -576.333448449     A.U. after    1 cycles

 The electronic state is 1-A1.
 Alpha  occ. eigenvalues -- -101.55154 -10.21270 -10.19954 -10.18270  -9.49514
 Alpha  occ. eigenvalues --   -7.25741  -7.24770  -7.24770  -0.90135  -0.78659
 Alpha  occ. eigenvalues --   -0.70617  -0.52477  -0.46881  -0.44296  -0.44296
 Alpha  occ. eigenvalues --   -0.38867  -0.38867  -0.26440  -0.26440
 Alpha virt. eigenvalues --    0.01229   0.02682   0.03488   0.03488   0.07342
 Alpha virt. eigenvalues --    0.08326   0.08326   0.11797   0.17083   0.17083
 Alpha virt. eigenvalues --    0.20255   0.20998   0.20998   0.25024   0.30618

 Mulliken charges:
               1
     1  C   -0.017395
     2  C   -0.017203
     3  C   -0.082015
     4  Cl  -0.041285
     5  H    0.052633
     6  H    0.052633
     7  H    0.052633
 Sum of Mulliken charges =   0.00000

 Dipole moment (field-independent basis, Debye):
    X=             -0.0000    Y=             -0.0000    Z=             -1.3487  Tot=              1.3487
 Quadrupole moment (field-independent basis, Debye-Ang):
   XX=            -31.0520   YY=            -31.0520   ZZ=            -23.9768
   XY=              0.0000   XZ=              0.0000   YZ=              0.0000

  Exact polarizability:  30.139  -0.000  30.139  -0.000   0.000  77.091
 Approx polarizability:  42.126  -0.000  42.126   0.000   0.000 119.174

                      1                      2                      3
                      E                      E                      E
 Frequencies --    190.0709               190.0713               389.5191
 Red. masses --      4.3612                 4.3613                 6.3308
 Frc consts  --      0.0928                 0.0928                 0.5659
 IR Inten    --      7.1362                 7.1362                 0.0644

                      4                      5                      6
                      E                     A1                      E
 Frequencies --    389.5192               584.1807              1055.1824
 Red. masses --      6.3308                 7.0779                 1.3886
 Frc consts  --      0.5659                 1.4231                 0.9109
 IR Inten    --      0.0644                 6.6181                 1.2418

                      7                      8                      9
                      E                     A1                     A1
 Frequencies --   1055.1824              1095.3702              1418.6631
 Red. masses --      1.3886                 5.8789                 1.2410
 Frc consts  --      0.9109                 4.1560                 1.4716
 IR Inten    --      1.2418                12.9547                 1.2475

                     10                     11                     12
                      E                      E                     A1
 Frequencies --   1477.8589              1477.8590              2336.8265
 Red. masses --      1.0388                 1.0388                11.8818
 Frc consts  --      1.3367                 1.3367                38.2284
 IR Inten    --      7.5267                 7.5270                15.4570

                     13                     14                     15
                     A1                      E                      E
 Frequencies --   3029.8550              3087.3844              3087.3847
 Red. masses --      1.0340                 1.1010                 1.1010
 Frc consts  --      5.5925                 6.1835                 6.1835
 IR Inten    --     24.9837                 7.2952                 7.2951

 - Thermochemistry -
 -------------------
 Temperature   298.150 Kelvin.  Pressure   1.00000 Atm.
 Atom     1 has atomic number  6 and mass  12.00000

 Molecular mass:    73.99233 amu.
 Principal axes and moments of inertia in atomic units:
                           1         2         3
     Eigenvalues --    11.19845 806.73305 806.73305
           X            0.00000   0.55470   0.83205
           Y            0.00000   0.83205  -0.55470
           Z            1.00000  -0.00000   0.00000
 This molecule is a prolate symmetric top.
 Rotational symmetry number  3.
 Rotational temperatures (Kelvin)      7.73446     0.10736     0.10736
 Rotational constants (GHZ):         161.15991     2.23710     2.23710
 Zero-point vibrational energy     124800.0 (Joules/Mol)
                                   29.82791 (Kcal/Mol)
 Warning -- explicit consideration of   5 degrees of freedom as
           vibrations may cause significant error
 Vibrational temperatures:    273.47   273.47   560.43   560.43   840.51
          (Kelvin)           1518.17  1518.17  1575.99  2041.14  2126.31
                             2126.31  3362.17  4359.29  4442.06  4442.06

 Zero-point correction=                           0.047534 (Hartree/Particle)
 Thermal correction to Energy=                    0.052430
 Thermal correction to Enthalpy=                  0.053374
 Thermal correction to Gibbs Free Energy=         0.021383
 Sum of electronic and zero-point Energies=           -576.285915
 Sum of electronic and thermal Energies=              -576.281018
 Sum of electronic and thermal Enthalpies=            -576.280074
 Sum of electronic and thermal Free Energies=         -576.312066

                     E (Thermal)             CV                S
                      KCal/Mol        Cal/Mol-Kelvin    Cal/Mol-Kelvin
 Total                   32.900             14.909             67.332
 Electronic               0.000              0.000              0.000
 Translational            0.889              2.981             38.820
 Rotational               0.889              2.981             21.320
 Vibrational             31.123              8.948              7.192
 Vibration     1          0.633              1.854              2.227
 Vibration     2          0.633              1.854              2.227
 Vibration     3          0.757              1.493              1.002
 Vibration     4          0.757              1.493              1.002
 Vibration     5          0.941              1.066              0.478

 Optimization completed.
    -- Stationary point found.
 Normal termination of Gaussian 16 at Fri Jun 17 17:48:53 2022.
