 Gaussian 16, Revision B.01,
 Gaussian 16:  ES64L-G16RevB.01 20-Dec-2017

 -------------------------------
 # b3lyp/gen opt freq symm=loose
 -------------------------------

 ------------------------------------
 1,1,1-trichloroethane, B3LYP/pcseg-2
 ------------------------------------
 Symbolic Z-matrix:
 Charge =  0 Multiplicity = 1

 SCF Done:  E(RB3LYP) =  -1458.75507251     A.U. after   12 cycles
 Optimization completed.
    -- Stationary point found.
 Normal termination of Gaussian 16 at Thu Jun 16 11:01:57 2022.

 ------------------------------------------------------------------
 #N Geom=AllCheck Guess=TCheck SCRF=Check GenChk RB3LYP/ChkBas Freq
 ------------------------------------------------------------------

 Structure from the checkpoint file:  "/wrk/irikura/Gau-18375.chk"
 ------------------------------------
 1,1,1-trichloroethane, B3LYP/pcseg-2
 ------------------------------------
 Charge =  0 Multiplicity = 1

                         Standard orientation:
 ---------------------------------------------------------------------
 Center     Atomic      Atomic             Coordinates (Angstroms)
 Number     Number       Type             X           Y           Z
 ---------------------------------------------------------------------
      1          6           0       -0.000000    0.000000    1.769334
      2          6           0       -0.000000    0.000000    0.255328
      3          1           0       -0.000000   -1.025069    2.133291
      4          1           0       -0.887736    0.512535    2.133291
      5          1           0        0.887736    0.512535    2.133291
      6         17           0        0.000000    1.687706   -0.363683
      7         17           0        1.461597   -0.843853   -0.363683
      8         17           0       -1.461597   -0.843853   -0.363683
 ---------------------------------------------------------------------

 SCF Done:  E(RB3LYP) =  -1458.75507251     A.U. after    1 cycles

 The electronic state is 1-A1.
 Alpha  occ. eigenvalues -- -101.53133-101.53133-101.53133 -10.36740 -10.20645
 Alpha  occ. eigenvalues --   -9.47672  -9.47672  -9.47672  -7.23877  -7.23877
 Alpha  occ. eigenvalues --   -7.23877  -7.22920  -7.22920  -7.22920  -7.22908
 Alpha  occ. eigenvalues --   -7.22908  -7.22908  -0.94891  -0.84149  -0.84149
 Alpha  occ. eigenvalues --   -0.76428  -0.60787  -0.50014  -0.50014  -0.47530
 Alpha  occ. eigenvalues --   -0.41985  -0.41985  -0.35784  -0.35784  -0.33529
 Alpha  occ. eigenvalues --   -0.32450  -0.32450  -0.31200
 Alpha virt. eigenvalues --   -0.04473  -0.00277  -0.00277   0.01934   0.07217
 Alpha virt. eigenvalues --    0.07217   0.08058   0.17304   0.17304   0.17770
 Alpha virt. eigenvalues --    0.20036   0.20036   0.20368   0.26704   0.26704

 Mulliken charges:
               1
     1  C   -0.068582
     2  C    0.147257
     3  H    0.054817
     4  H    0.054817
     5  H    0.054817
     6  Cl  -0.081042
     7  Cl  -0.081042
     8  Cl  -0.081042
 Sum of Mulliken charges =   0.00000

 Dipole moment (field-independent basis, Debye):
    X=              0.0000    Y=             -0.0000    Z=              1.9192  Tot=              1.9192
 Quadrupole moment (field-independent basis, Debye-Ang):
   XX=            -51.3451   YY=            -51.3451   ZZ=            -48.0308
   XY=              0.0000   XZ=             -0.0000   YZ=              0.0000

  Exact polarizability:  63.073  -0.000  63.074  -0.000  -0.000  53.394
 Approx polarizability:  97.687  -0.000  97.687  -0.000  -0.000  76.123

                      1                      2                      3
                      E                      E                     A2
 Frequencies --    236.4119               236.4122               293.4685
 Red. masses --     10.2499                10.2496                 1.0182
 Frc consts  --      0.3375                 0.3375                 0.0517
 IR Inten    --      0.1225                 0.1225                 0.0000

                      4                      5                      6
                     A1                      E                      E
 Frequencies --    341.1686               342.5641               342.5653
 Red. masses --     13.7930                 4.2820                 4.2821
 Frc consts  --      0.9459                 0.2961                 0.2961
 IR Inten    --      0.9312                 2.2979                 2.2982

                      7                      8                      9
                     A1                      E                      E
 Frequencies --    517.8920               680.7189               680.7272
 Red. masses --      7.5247                 4.9779                 4.9779
 Frc consts  --      1.1891                 1.3590                 1.3591
 IR Inten    --     10.4099               132.3430               132.3401

                     10                     11                     12
                     A1                      E                      E
 Frequencies --   1065.1986              1101.1549              1101.1552
 Red. masses --      6.4489                 1.5143                 1.5143
 Frc consts  --      4.3112                 1.0818                 1.0818
 IR Inten    --     21.2844                54.1417                54.1391

                     13                     14                     15
                     A1                      E                      E
 Frequencies --   1419.2241              1480.1349              1480.1349
 Red. masses --      1.2211                 1.0417                 1.0417
 Frc consts  --      1.4491                 1.3447                 1.3447
 IR Inten    --      6.9862                 3.4686                 3.4683

                     16                     17                     18
                     A1                      E                      E
 Frequencies --   3060.7651              3142.1470              3142.1473
 Red. masses --      1.0328                 1.1041                 1.1041
 Frc consts  --      5.7005                 6.4229                 6.4229
 IR Inten    --      2.1465                 2.7608                 2.7618

 - Thermochemistry -
 -------------------
 Temperature   298.150 Kelvin.  Pressure   1.00000 Atm.
 Atom     1 has atomic number  6 and mass  12.00000

 Molecular mass:   131.93003 amu.
 Principal axes and moments of inertia in atomic units:
                           1         2         3
     Eigenvalues --   773.35704 773.357041078.41812
           X            0.70711   0.70711   0.00000
           Y           -0.70711   0.70711   0.00000
           Z            0.00000  -0.00000   1.00000
 This molecule is an oblate symmetric top.
 Rotational symmetry number  3.
 Warning -- assumption of classical behavior for rotation
           may cause significant error
 Rotational temperatures (Kelvin)      0.11200     0.11200     0.08032
 Rotational constants (GHZ):           2.33365     2.33365     1.67351
 Zero-point vibrational energy     123598.1 (Joules/Mol)
                                   29.54066 (Kcal/Mol)
 Warning -- explicit consideration of   7 degrees of freedom as
           vibrations may cause significant error
 Vibrational temperatures:    340.14   340.14   422.24   490.87   492.87
          (Kelvin)            492.88   745.13   979.40   979.41  1532.58
                             1584.32  1584.32  2041.95  2129.58  2129.58
                             4403.76  4520.85  4520.85

 Zero-point correction=                           0.047076 (Hartree/Particle)
 Thermal correction to Energy=                    0.053007
 Thermal correction to Enthalpy=                  0.053951
 Thermal correction to Gibbs Free Energy=         0.017579
 Sum of electronic and zero-point Energies=          -1458.707996
 Sum of electronic and thermal Energies=             -1458.702065
 Sum of electronic and thermal Enthalpies=           -1458.701121
 Sum of electronic and thermal Free Energies=        -1458.737493

                     E (Thermal)             CV                S
                      KCal/Mol        Cal/Mol-Kelvin    Cal/Mol-Kelvin
 Total                   33.263             20.064             76.552
 Electronic               0.000              0.000              0.000
 Translational            0.889              2.981             40.544
 Rotational               0.889              2.981             25.775
 Vibrational             31.485             14.103             10.233
 Vibration     1          0.655              1.785              1.830
 Vibration     2          0.655              1.785              1.830
 Vibration     3          0.688              1.686              1.454
 Vibration     4          0.721              1.593              1.207
 Vibration     5          0.722              1.590              1.200
 Vibration     6          0.722              1.590              1.200
 Vibration     7          0.873              1.210              0.615

 Optimization completed.
    -- Stationary point found.
 Normal termination of Gaussian 16 at Thu Jun 16 11:02:42 2022.
