 Gaussian 16, Revision B.01,
 Gaussian 16:  ES64L-G16RevB.01 20-Dec-2017

 --------------------
 # b3lyp/gen opt freq
 --------------------

 -----------------------------
 hydroxyacetone, B3LYP/pcseg-2
 -----------------------------
 Symbolic Z-matrix:
 Charge =  0 Multiplicity = 1

 SCF Done:  E(RB3LYP) =  -268.482994528     A.U. after   13 cycles
 SCF Done:  E(RB3LYP) =  -268.483163452     A.U. after   10 cycles
 SCF Done:  E(RB3LYP) =  -268.483175618     A.U. after    8 cycles
 SCF Done:  E(RB3LYP) =  -268.483177110     A.U. after    7 cycles
 Optimization completed.
    -- Stationary point found.
 Normal termination of Gaussian 16 at Tue Sep 12 10:48:45 2023.

 ------------------------------------------------------------------
 #N Geom=AllCheck Guess=TCheck SCRF=Check GenChk RB3LYP/ChkBas Freq
 ------------------------------------------------------------------

 Structure from the checkpoint file:  "/wrk/irikura/Gau-333570.chk"
 -----------------------------
 hydroxyacetone, B3LYP/pcseg-2
 -----------------------------
 Charge =  0 Multiplicity = 1

                         Standard orientation:
 ---------------------------------------------------------------------
 Center     Atomic      Atomic             Coordinates (Angstroms)
 Number     Number       Type             X           Y           Z
 ---------------------------------------------------------------------
      1          6           0        0.000000    0.640598    0.000000
      2          6           0        0.903798   -0.588146    0.000000
      3          6           0       -1.489462    0.429342    0.000000
      4          8           0        0.513086    1.735199    0.000000
      5          8           0        0.142621   -1.786042    0.000000
      6          1           0        1.545825   -0.511761    0.883759
      7          1           0        1.545825   -0.511761   -0.883759
      8          1           0       -1.992419    1.392132    0.000000
      9          1           0       -1.784412   -0.157034    0.871568
     10          1           0       -1.784412   -0.157034   -0.871568
     11          1           0        0.737929   -2.538565    0.000000
 ---------------------------------------------------------------------

 SCF Done:  E(RB3LYP) =  -268.483177110     A.U. after    1 cycles

 The electronic state is 1-A'.
 Alpha  occ. eigenvalues --  -19.14551 -19.11747 -10.26896 -10.23839 -10.17487
 Alpha  occ. eigenvalues --   -1.05670  -1.04250  -0.76535  -0.71334  -0.54560
 Alpha  occ. eigenvalues --   -0.53684  -0.49029  -0.47761  -0.43366  -0.42751
 Alpha  occ. eigenvalues --   -0.39816  -0.37432  -0.36689  -0.30125  -0.26174
 Alpha virt. eigenvalues --   -0.02954  -0.00490   0.03153   0.04805   0.06998
 Alpha virt. eigenvalues --    0.07843   0.08675   0.10885   0.12404   0.16059
 Alpha virt. eigenvalues --    0.17780   0.18810   0.19802   0.23213   0.25717

 Mulliken charges:
               1
     1  C    0.266440
     2  C    0.173538
     3  C   -0.039746
     4  O   -0.398954
     5  O   -0.408624
     6  H    0.038404
     7  H    0.038404
     8  H    0.058503
     9  H    0.043060
    10  H    0.043060
    11  H    0.185915
 Sum of Mulliken charges =  -0.00000

 Dipole moment (field-independent basis, Debye):
    X=              0.2444    Y=             -2.8874    Z=             -0.0000  Tot=              2.8977
 Quadrupole moment (field-independent basis, Debye-Ang):
   XX=            -28.1188   YY=            -33.6918   ZZ=            -29.6839
   XY=             -5.9996   XZ=              0.0000   YZ=              0.0000

  Exact polarizability:  48.097   0.375  50.196  -0.000  -0.000  34.348
 Approx polarizability:  61.756   5.604  70.357  -0.000   0.000  49.228

                      1                      2                      3
                     A"                     A"                     A"
 Frequencies --     46.1860               142.8200               207.5262
 Red. masses --      2.6820                 1.0495                 1.0738
 Frc consts  --      0.0034                 0.0126                 0.0272
 IR Inten    --     28.6056                 0.1744               110.5328

                      4                      5                      6
                     A'                     A"                     A'
 Frequencies --    264.4245               480.8199               496.3077
 Red. masses --      3.6187                 2.1904                 2.9546
 Frc consts  --      0.1491                 0.2984                 0.4288
 IR Inten    --     11.6049                 3.6339                12.5714

                      7                      8                      9
                     A'                     A'                     A"
 Frequencies --    508.4822               759.8287               866.2596
 Red. masses --      7.7601                 3.5034                 1.3171
 Frc consts  --      1.1821                 1.1917                 0.5823
 IR Inten    --      5.3050                 0.2672                 2.0804

                     10                     11                     12
                     A'                     A'                     A"
 Frequencies --    979.0156              1081.0134              1092.8286
 Red. masses --      1.7433                 6.0034                 2.0230
 Frc consts  --      0.9845                 4.1334                 1.4235
 IR Inten    --     24.2694                68.9076                 0.2613

                     13                     14                     15
                     A'                     A"                     A'
 Frequencies --   1183.4312              1254.0550              1263.1413
 Red. masses --      1.4483                 1.0985                 1.7828
 Frc consts  --      1.1950                 1.0179                 1.6759
 IR Inten    --    106.2781                 0.7252                61.9598

                     16                     17                     18
                     A'                     A'                     A'
 Frequencies --   1387.7411              1420.4072              1457.3851
 Red. masses --      1.3138                 1.4570                 1.0663
 Frc consts  --      1.4907                 1.7319                 1.3343
 IR Inten    --     37.7513                 4.9886                16.8456

                     19                     20                     21
                     A"                     A'                     A'
 Frequencies --   1464.6301              1481.7581              1783.8344
 Red. masses --      1.0492                 1.0873                10.7761
 Frc consts  --      1.3261                 1.4066                20.2033
 IR Inten    --     10.6953                12.4623               178.3729

                     22                     23                     24
                     A'                     A"                     A'
 Frequencies --   3001.6988              3036.4181              3044.2542
 Red. masses --      1.0552                 1.1060                 1.0355
 Frc consts  --      5.6018                 6.0081                 5.6539
 IR Inten    --     28.3569                17.7203                 0.5726

                     25                     26                     27
                     A"                     A'                     A'
 Frequencies --   3099.1860              3151.0354              3847.0669
 Red. masses --      1.0974                 1.1044                 1.0669
 Frc consts  --      6.2104                 6.4605                 9.3030
 IR Inten    --      3.7976                 8.2169                42.4626

 - Thermochemistry -
 -------------------
 Temperature   298.150 Kelvin.  Pressure   1.00000 Atm.
 Atom     1 has atomic number  6 and mass  12.00000

 Molecular mass:    74.03678 amu.
 Principal axes and moments of inertia in atomic units:
                           1         2         3
     Eigenvalues --   208.39597 442.71188 628.92846
           X           -0.14883   0.98886   0.00000
           Y            0.98886   0.14883   0.00000
           Z           -0.00000   0.00000   1.00000
 This molecule is an asymmetric top.
 Rotational symmetry number  1.
 Rotational temperatures (Kelvin)      0.41562     0.19564     0.13772
 Rotational constants (GHZ):           8.66015     4.07656     2.86955
 Zero-point vibrational energy     232084.8 (Joules/Mol)
                                   55.46961 (Kcal/Mol)
 Warning -- explicit consideration of   7 degrees of freedom as
           vibrations may cause significant error
 Vibrational temperatures:     66.45   205.49   298.58   380.45   691.79
          (Kelvin)            714.08   731.59  1093.22  1246.35  1408.59
                             1555.34  1572.34  1702.69  1804.31  1817.38
                             1996.65  2043.65  2096.85  2107.28  2131.92
                             2566.54  4318.78  4368.73  4380.00  4459.04
                             4533.64  5535.07

 Zero-point correction=                           0.088396 (Hartree/Particle)
 Thermal correction to Energy=                    0.094749
 Thermal correction to Enthalpy=                  0.095693
 Thermal correction to Gibbs Free Energy=         0.058318
 Sum of electronic and zero-point Energies=           -268.394781
 Sum of electronic and thermal Energies=              -268.388428
 Sum of electronic and thermal Enthalpies=            -268.387484
 Sum of electronic and thermal Free Energies=         -268.424859

                     E (Thermal)             CV                S
                      KCal/Mol        Cal/Mol-Kelvin    Cal/Mol-Kelvin
 Total                   59.456             20.494             78.661
 Electronic               0.000              0.000              0.000
 Translational            0.889              2.981             38.822
 Rotational               0.889              2.981             25.565
 Vibrational             57.678             14.533             14.275
 Vibration     1          0.595              1.979              4.974
 Vibration     2          0.616              1.910              2.766
 Vibration     3          0.641              1.829              2.065
 Vibration     4          0.671              1.738              1.632
 Vibration     5          0.837              1.293              0.708
 Vibration     6          0.852              1.258              0.667
 Vibration     7          0.864              1.231              0.637

 Optimization completed.
    -- Stationary point found.
 Normal termination of Gaussian 16 at Tue Sep 12 10:50:31 2023.
