 Gaussian 16, Revision B.01,

 --------------------------------------------
 # b3lyp/gen opt=cart freq CPHF(Grid=OneStep)
 --------------------------------------------

 -----------------------
 2-butyne, B3LYP/pcseg-2
 -----------------------
 Symbolic Z-matrix:
 Charge =  0 Multiplicity = 1

 SCF Done:  E(RB3LYP) =  -156.046370676     A.U. after   10 cycles
 Optimization completed.
    -- Stationary point found.
 Normal termination of Gaussian 16 at Tue Oct  3 14:38:52 2023.

 ------------------------------------------------------------------
 #N Geom=AllCheck Guess=TCheck SCRF=Check GenChk RB3LYP/ChkBas Freq
 ------------------------------------------------------------------

 Structure from the checkpoint file:  "ch3ccch3.chk"
 -----------------------
 2-butyne, B3LYP/pcseg-2
 -----------------------
 Charge =  0 Multiplicity = 1

 SCF Done:  E(RB3LYP) =  -156.046370676     A.U. after    1 cycles

  Exact polarizability:  35.034  -0.000  35.034  -0.000   0.000  72.717
 Approx polarizability:  48.000  -0.000  48.000   0.000   0.000 102.696

                      1                      2                      3
                     A1"                    E'                     E'
 Frequencies --     12.4682               201.5736               201.5737
 Red. masses --      1.0078                 2.7952                 2.7952
 Frc consts  --      0.0001                 0.0669                 0.0669
 IR Inten    --      0.0000                13.2416                13.2417

                      4                      5                      6
                     E"                     E"                     A1'
 Frequencies --    402.3600               402.3600               724.4709
 Red. masses --      4.0246                 4.0246                 3.6573
 Frc consts  --      0.3839                 0.3839                 1.1310
 IR Inten    --      0.0000                 0.0000                 0.0000

                      7                      8                      9
                     E"                     E"                     E'
 Frequencies --   1048.8269              1048.8270              1066.3012
 Red. masses --      1.4237                 1.4237                 1.3720
 Frc consts  --      0.9228                 0.9228                 0.9191
 IR Inten    --      0.0000                 0.0000                 1.0411

                     10                     11                     12
                     E'                     A2"                    A2"
 Frequencies --   1066.3012              1168.3259              1417.4660
 Red. masses --      1.3720                 4.4836                 1.2882
 Frc consts  --      0.9191                 3.6058                 1.5249
 IR Inten    --      1.0411                 0.0376                 3.4086

                     13                     14                     15
                     A1'                    E'                     E'
 Frequencies --   1420.5258              1480.0801              1480.0802
 Red. masses --      1.2112                 1.0381                 1.0381
 Frc consts  --      1.4400                 1.3398                 1.3398
 IR Inten    --      0.0000                14.0162                14.0161

                     16                     17                     18
                     E"                     E"                     A1'
 Frequencies --   1480.0979              1480.0980              2357.5110
 Red. masses --      1.0405                 1.0405                11.7788
 Frc consts  --      1.3430                 1.3430                38.5707
 IR Inten    --      0.0000                 0.0000                 0.0000

                     19                     20                     21
                     A1'                    A2"                    E'
 Frequencies --   3025.2894              3025.9472              3079.7087
 Red. masses --      1.0340                 1.0344                 1.1008
 Frc consts  --      5.5756                 5.5801                 6.1516
 IR Inten    --      0.0000                66.0888                21.5121

                     22                     23                     24
                     E'                     E"                     E"
 Frequencies --   3079.7088              3080.7504              3080.7506
 Red. masses --      1.1008                 1.1008                 1.1008
 Frc consts  --      6.1516                 6.1557                 6.1557
 IR Inten    --     21.5121                 0.0000                 0.0000

 - Thermochemistry -
 -------------------
 Temperature   298.150 Kelvin.  Pressure   1.00000 Atm.
 Atom     1 has atomic number  6 and mass  12.00000

 Molecular mass:    54.04695 amu.
 Principal axes and moments of inertia in atomic units:
                           1         2         3
     Eigenvalues --    22.35852 534.46619 534.46619
           X           -0.00000   0.97239  -0.23337
           Y           -0.00000   0.23337   0.97239
           Z            1.00000   0.00000  -0.00000
 This molecule is a prolate symmetric top.
 Rotational symmetry number  6.
 Rotational temperatures (Kelvin)      3.87387     0.16206     0.16206
 Rotational constants (GHZ):          80.71828     3.37672     3.37672
 Zero-point vibrational energy     220300.7 (Joules/Mol)
                                   52.65313 (Kcal/Mol)
 Warning -- explicit consideration of   5 degrees of freedom as
           vibrations may cause significant error
 Vibrational temperatures:     17.94   290.02   290.02   578.91   578.91
          (Kelvin)           1042.35  1509.03  1509.03  1534.17  1534.17
                             1680.96  2039.42  2043.82  2129.51  2129.51
                             2129.53  2129.53  3391.93  4352.72  4353.66
                             4431.01  4431.01  4432.51  4432.51

 Zero-point correction=                           0.083908 (Hartree/Particle)
 Thermal correction to Energy=                    0.089663
 Thermal correction to Enthalpy=                  0.090607
 Thermal correction to Gibbs Free Energy=         0.056340
 Sum of electronic and zero-point Energies=           -155.962463
 Sum of electronic and thermal Energies=              -155.956708
 Sum of electronic and thermal Enthalpies=            -155.955764
 Sum of electronic and thermal Free Energies=         -155.990031

                     E (Thermal)             CV                S
                      KCal/Mol        Cal/Mol-Kelvin    Cal/Mol-Kelvin
 Total                   56.264             17.360             72.121
 Electronic               0.000              0.000              0.000
 Translational            0.889              2.981             37.884
 Rotational               0.889              2.981             19.812
 Vibrational             54.487             11.399             14.425
 Vibration     1          0.593              1.987              7.573
 Vibration     2          0.638              1.838              2.119
 Vibration     3          0.638              1.838              2.119
 Vibration     4          0.768              1.465              0.954
 Vibration     5          0.768              1.465              0.954

 Optimization completed.
    -- Stationary point found.
 Normal termination of Gaussian 16 at Tue Oct  3 14:40:42 2023.
 Gaussian 16:  ES64L-G16RevB.01 20-Dec-2017

 ---------------------------------
 # rohf/gen geom=check guess=check
 ---------------------------------

 --------------------------
 2-butyne, ROHF/cc-pVTZ-F12
 --------------------------
 Structure from the checkpoint file:  "ch3ccch3.chk"
 Charge =  0 Multiplicity = 1

                         Standard orientation:
 ---------------------------------------------------------------------
 Center     Atomic      Atomic             Coordinates (Angstroms)
 Number     Number       Type             X           Y           Z
 ---------------------------------------------------------------------
      1          6           0        0.000000    0.000000    0.600425
      2          6           0        0.000000    0.000000   -0.600425
      3          6           0        0.000000    0.000000    2.056907
      4          6           0        0.000000    0.000000   -2.056907
      5          1           0        0.000000    1.017547    2.451532
      6          1           0       -0.881221   -0.508773    2.451532
      7          1           0        0.881221   -0.508773    2.451532
      8          1           0        0.000000    1.017547   -2.451532
      9          1           0        0.881221   -0.508773   -2.451532
     10          1           0       -0.881221   -0.508773   -2.451532
 ---------------------------------------------------------------------

 SCF Done:  E(ROHF) =  -154.974738899     A.U. after    9 cycles

 The electronic state is 1-A1'.
 Alpha  occ. eigenvalues --  -11.24011 -11.24011 -11.21522 -11.21135  -1.06236
 Alpha  occ. eigenvalues --   -1.00202  -0.91574  -0.65389  -0.59834  -0.59047
 Alpha  occ. eigenvalues --   -0.59047  -0.57320  -0.57320  -0.36284  -0.36284
 Alpha virt. eigenvalues --    0.04364   0.05815   0.07306   0.07306   0.07531
 Alpha virt. eigenvalues --    0.08412   0.08412   0.10116   0.13365   0.13365
 Alpha virt. eigenvalues --    0.16320   0.16598   0.17011   0.17011   0.19895

 Mulliken charges and spin densities:
               1          2
     1  C    0.016670   0.000000
     2  C    0.016670   0.000000
     3  C   -0.329585   0.000000
     4  C   -0.329585   0.000000
     5  H    0.104305   0.000000
     6  H    0.104305   0.000000
     7  H    0.104305   0.000000
     8  H    0.104305   0.000000
     9  H    0.104305   0.000000
    10  H    0.104305   0.000000
 Sum of Mulliken charges =  -0.00000   0.00000

 Dipole moment (field-independent basis, Debye):
    X=             -0.0000    Y=              0.0000    Z=              0.0000  Tot=              0.0000
 Quadrupole moment (field-independent basis, Debye-Ang):
   XX=            -26.0736   YY=            -26.0736   ZZ=            -19.0842
   XY=              0.0000   XZ=              0.0000   YZ=             -0.0000

 Normal termination of Gaussian 16 at Tue Oct  3 14:41:07 2023.
