 Gaussian 16, Revision B.01,

 ---------------------------------------
 # b3lyp/gen opt freq CPHF(Grid=OneStep)
 ---------------------------------------

 ---------------------------
 acetaldehyde, B3LYP/pcseg-2
 ---------------------------
 Symbolic Z-matrix:
 Charge =  0 Multiplicity = 1

 SCF Done:  E(RB3LYP) =  -153.899688660     A.U. after   12 cycles
 Optimization completed.
    -- Stationary point found.
 Normal termination of Gaussian 16 at Sat Sep 30 10:51:19 2023.

 ------------------------------------------------------------------
 #N Geom=AllCheck Guess=TCheck SCRF=Check GenChk RB3LYP/ChkBas Freq
 ------------------------------------------------------------------

 Structure from the checkpoint file:  "ch3cho.chk"
 ---------------------------
 acetaldehyde, B3LYP/pcseg-2
 ---------------------------
 Charge =  0 Multiplicity = 1

 SCF Done:  E(RB3LYP) =  -153.899688660     A.U. after    1 cycles

  Exact polarizability:  35.080   1.071  29.371  -0.000  -0.000  21.986
 Approx polarizability:  52.086  -0.601  36.180  -0.000   0.000  30.292

                      1                      2                      3
                     A"                     A'                     A"
 Frequencies --    155.8530               510.8391               775.6249
 Red. masses --      1.2385                 2.5451                 1.1224
 Frc consts  --      0.0177                 0.3913                 0.3978
 IR Inten    --      1.1087                13.4476                 0.8778

                      4                      5                      6
                     A'                     A'                     A"
 Frequencies --    886.3468              1130.1831              1136.8308
 Red. masses --      2.1672                 2.0968                 1.7802
 Frc consts  --      1.0031                 1.5780                 1.3555
 IR Inten    --     10.2424                25.9959                 0.2423

                      7                      8                      9
                     A'                     A'                     A'
 Frequencies --   1379.5227              1425.2976              1459.7867
 Red. masses --      1.2534                 1.1946                 1.0607
 Frc consts  --      1.4054                 1.4299                 1.3318
 IR Inten    --     26.4474                 9.6678                22.8229

                     10                     11                     12
                     A"                     A'                     A'
 Frequencies --   1469.2287              1807.6284              2871.0963
 Red. masses --      1.0472                 9.2849                 1.0821
 Frc consts  --      1.3318                17.8749                 5.2556
 IR Inten    --     10.9556               197.8698               125.1151

                     13                     14                     15
                     A'                     A"                     A'
 Frequencies --   3025.8177              3078.5557              3140.0278
 Red. masses --      1.0369                 1.0980                 1.1022
 Frc consts  --      5.5935                 6.1311                 6.4032
 IR Inten    --      2.1093                 6.4509                 9.1510

 - Thermochemistry -
 -------------------
 Temperature   298.150 Kelvin.  Pressure   1.00000 Atm.
 Atom     1 has atomic number  6 and mass  12.00000

 Molecular mass:    44.02621 amu.
 Principal axes and moments of inertia in atomic units:
                           1         2         3
     Eigenvalues --    31.39988 177.35206 197.69861
           X            0.87463  -0.48480   0.00000
           Y            0.48480   0.87463   0.00000
           Z            0.00000   0.00000   1.00000
 This molecule is an asymmetric top.
 Rotational symmetry number  1.
 Rotational temperatures (Kelvin)      2.75842     0.48837     0.43811
 Rotational constants (GHZ):          57.47605    10.17604     9.12875
 Zero-point vibrational energy     145063.0 (Joules/Mol)
                                   34.67089 (Kcal/Mol)
 Warning -- explicit consideration of   2 degrees of freedom as
           vibrations may cause significant error
 Vibrational temperatures:    224.24   734.98  1115.95  1275.26  1626.08
          (Kelvin)           1635.65  1984.83  2050.69  2100.31  2113.89
                             2600.77  4130.87  4353.48  4429.36  4517.80

 Zero-point correction=                           0.055252 (Hartree/Particle)
 Thermal correction to Energy=                    0.059147
 Thermal correction to Enthalpy=                  0.060092
 Thermal correction to Gibbs Free Energy=         0.030310
 Sum of electronic and zero-point Energies=           -153.844437
 Sum of electronic and thermal Energies=              -153.840541
 Sum of electronic and thermal Enthalpies=            -153.839597
 Sum of electronic and thermal Free Energies=         -153.869378

                     E (Thermal)             CV                S
                      KCal/Mol        Cal/Mol-Kelvin    Cal/Mol-Kelvin
 Total                   37.116             11.205             62.680
 Electronic               0.000              0.000              0.000
 Translational            0.889              2.981             37.273
 Rotational               0.889              2.981             21.626
 Vibrational             35.338              5.243              3.782
 Vibration     1          0.620              1.896              2.600
 Vibration     2          0.866              1.226              0.632

 Optimization completed.
    -- Stationary point found.
 Normal termination of Gaussian 16 at Sat Sep 30 10:53:05 2023.
 Gaussian 16:  ES64L-G16RevB.01 20-Dec-2017

 ---------------------------------
 # rohf/gen geom=check guess=check
 ---------------------------------

 ------------------------------
 acetaldehyde, ROHF/cc-pVTZ-F12
 ------------------------------
 Structure from the checkpoint file:  "ch3cho.chk"
 Charge =  0 Multiplicity = 1

                         Standard orientation:
 ---------------------------------------------------------------------
 Center     Atomic      Atomic             Coordinates (Angstroms)
 Number     Number       Type             X           Y           Z
 ---------------------------------------------------------------------
      1          6           0        0.000000    0.459654    0.000000
      2          6           0       -0.929364   -0.718666    0.000000
      3          8           0        1.201226    0.386632    0.000000
      4          1           0       -0.498080    1.451681    0.000000
      5          1           0       -0.373680   -1.653181    0.000000
      6          1           0       -1.580931   -0.668741    0.876244
      7          1           0       -1.580931   -0.668741   -0.876244
 ---------------------------------------------------------------------

 SCF Done:  E(ROHF) =  -152.986108494     A.U. after   11 cycles

 The electronic state is 1-A'.
 Alpha  occ. eigenvalues --  -20.55782 -11.33514 -11.24158  -1.39783  -1.02276
 Alpha  occ. eigenvalues --   -0.80196  -0.67693  -0.62737  -0.60601  -0.56341
 Alpha  occ. eigenvalues --   -0.50714  -0.42684
 Alpha virt. eigenvalues --    0.04676   0.05261   0.06876   0.07409   0.09094
 Alpha virt. eigenvalues --    0.09514   0.09915   0.14215   0.16595   0.17158
 Alpha virt. eigenvalues --    0.18626   0.21734   0.22719   0.23268   0.23633

 Mulliken charges and spin densities:
               1          2
     1  C    0.407723   0.000000
     2  C   -0.263746   0.000000
     3  O   -0.544309   0.000000
     4  H    0.102261   0.000000
     5  H    0.126938   0.000000
     6  H    0.085566   0.000000
     7  H    0.085566   0.000000
 Sum of Mulliken charges =  -0.00000   0.00000

 Dipole moment (field-independent basis, Debye):
    X=             -3.2268    Y=             -0.2768    Z=             -0.0000  Tot=              3.2387
 Quadrupole moment (field-independent basis, Debye-Ang):
   XX=            -21.5820   YY=            -17.6925   ZZ=            -17.9950
   XY=             -1.0266   XZ=              0.0000   YZ=             -0.0000

 Normal termination of Gaussian 16 at Sat Sep 30 10:53:36 2023.
