 Gaussian 16, Revision B.01,
 Gaussian 16:  ES64L-G16RevB.01 20-Dec-2017

 --------------------
 # b3lyp/gen opt freq
 --------------------

 ---------------------------------
 1,1-difluoroethane, B3LYP/pcseg-2
 ---------------------------------
 Symbolic Z-matrix:
 Charge =  0 Multiplicity = 1

 SCF Done:  E(RB3LYP) =  -278.435472282     A.U. after   11 cycles
 SCF Done:  E(RB3LYP) =  -278.435744253     A.U. after    7 cycles
 SCF Done:  E(RB3LYP) =  -278.435777907     A.U. after    7 cycles
 SCF Done:  E(RB3LYP) =  -278.435779677     A.U. after    7 cycles
 Optimization completed.
    -- Stationary point found.
 Normal termination of Gaussian 16 at Thu Jun 16 14:06:23 2022.

 ------------------------------------------------------------------
 #N Geom=AllCheck Guess=TCheck SCRF=Check GenChk RB3LYP/ChkBas Freq
 ------------------------------------------------------------------

 Structure from the checkpoint file:  "/wrk/irikura/Gau-3029.chk"
 ---------------------------------
 1,1-difluoroethane, B3LYP/pcseg-2
 ---------------------------------
 Charge =  0 Multiplicity = 1

                         Standard orientation:
 ---------------------------------------------------------------------
 Center     Atomic      Atomic             Coordinates (Angstroms)
 Number     Number       Type             X           Y           Z
 ---------------------------------------------------------------------
      1          6           0        0.321211    0.165682    0.000000
      2          6           0       -0.897912    1.043719   -0.000000
      3          1           0        1.267424    0.708843    0.000000
      4          9           0        0.321211   -0.652293    1.102187
      5          9           0        0.321211   -0.652293   -1.102187
      6          1           0       -1.793473    0.424335   -0.000000
      7          1           0       -0.897773    1.675844    0.886558
      8          1           0       -0.897773    1.675844   -0.886558
 ---------------------------------------------------------------------

 SCF Done:  E(RB3LYP) =  -278.435779677     A.U. after    1 cycles

 The electronic state is 1-A'.
 Alpha  occ. eigenvalues --  -24.68488 -24.68488 -10.34014 -10.18789  -1.25161
 Alpha  occ. eigenvalues --   -1.19521  -0.78416  -0.65770  -0.55964  -0.55114
 Alpha  occ. eigenvalues --   -0.51097  -0.44355  -0.43012  -0.41861  -0.40622
 Alpha  occ. eigenvalues --   -0.39814  -0.35093
 Alpha virt. eigenvalues --    0.01427   0.03999   0.06660   0.07813   0.08573
 Alpha virt. eigenvalues --    0.09828   0.12726   0.17717   0.18567   0.22105
 Alpha virt. eigenvalues --    0.25417   0.26125   0.29726   0.31310   0.33393

 Mulliken charges:
               1
     1  C    0.519402
     2  C   -0.043432
     3  H    0.001761
     4  F   -0.294291
     5  F   -0.294291
     6  H    0.040283
     7  H    0.035284
     8  H    0.035284
 Sum of Mulliken charges =  -0.00000

 Dipole moment (field-independent basis, Debye):
    X=             -0.3662    Y=              2.3255    Z=             -0.0000  Tot=              2.3541
 Quadrupole moment (field-independent basis, Debye-Ang):
   XX=            -21.6719   YY=            -23.1544   ZZ=            -25.7662
   XY=              0.5029   XZ=             -0.0000   YZ=              0.0000

  Exact polarizability:  27.467  -1.048  27.799  -0.000  -0.000  27.760
 Approx polarizability:  34.044   0.458  35.560   0.000  -0.000  37.696

                      1                      2                      3
                     A"                     A"                     A'
 Frequencies --    228.0353               382.0986               462.7468
 Red. masses --      1.0639                 3.0772                 4.5589
 Frc consts  --      0.0326                 0.2647                 0.5752
 IR Inten    --      0.0535                 0.2256                12.1553

                      4                      5                      6
                     A'                     A'                     A"
 Frequencies --    565.2789               868.9773               936.6123
 Red. masses --      4.1339                 2.2693                 2.3901
 Frc consts  --      0.7783                 1.0096                 1.2353
 IR Inten    --      5.7996                 8.8925                95.0604

                      7                      8                      9
                     A'                     A"                     A'
 Frequencies --   1131.0198              1132.5847              1157.4656
 Red. masses --      3.3278                 2.3051                 2.2892
 Frc consts  --      2.5081                 1.7421                 1.8070
 IR Inten    --    113.4796               136.5019                30.7997

                     10                     11                     12
                     A"                     A'                     A'
 Frequencies --   1381.4816              1391.6229              1430.4077
 Red. masses --      1.1505                 1.2263                 1.4382
 Frc consts  --      1.2937                 1.3992                 1.7338
 IR Inten    --     18.4338                 5.3957                61.7566

                     13                     14                     15
                     A'                     A"                     A'
 Frequencies --   1483.9787              1484.3676              3054.6869
 Red. masses --      1.0480                 1.0501                 1.0344
 Frc consts  --      1.3597                 1.3633                 5.6869
 IR Inten    --      5.0611                 1.2697                 2.6923

                     16                     17                     18
                     A'                     A"                     A'
 Frequencies --   3071.4763              3130.5485              3135.4807
 Red. masses --      1.0878                 1.1027                 1.1033
 Frc consts  --      6.0462                 6.3673                 6.3905
 IR Inten    --     33.7335                 8.8998                14.2492

 - Thermochemistry -
 -------------------
 Temperature   298.150 Kelvin.  Pressure   1.00000 Atm.
 Atom     1 has atomic number  6 and mass  12.00000

 Molecular mass:    66.02811 amu.
 Principal axes and moments of inertia in atomic units:
                           1         2         3
     Eigenvalues --   191.68552 202.13542 351.43947
           X           -0.58392  -0.00000   0.81181
           Y            0.81181   0.00000   0.58392
           Z           -0.00000   1.00000   0.00000
 This molecule is an asymmetric top.
 Rotational symmetry number  1.
 Rotational temperatures (Kelvin)      0.45185     0.42849     0.24645
 Rotational constants (GHZ):           9.41511     8.92838     5.13528
 Zero-point vibrational energy     158079.7 (Joules/Mol)
                                   37.78197 (Kcal/Mol)
 Warning -- explicit consideration of   4 degrees of freedom as
           vibrations may cause significant error
 Vibrational temperatures:    328.09   549.75   665.79   813.31  1250.26
          (Kelvin)           1347.58  1627.29  1629.54  1665.33  1987.64
                             2002.23  2058.04  2135.11  2135.67  4395.01
                             4419.17  4504.16  4511.26

 Zero-point correction=                           0.060209 (Hartree/Particle)
 Thermal correction to Energy=                    0.064525
 Thermal correction to Enthalpy=                  0.065469
 Thermal correction to Gibbs Free Energy=         0.033484
 Sum of electronic and zero-point Energies=           -278.375570
 Sum of electronic and thermal Energies=              -278.371255
 Sum of electronic and thermal Enthalpies=            -278.370311
 Sum of electronic and thermal Free Energies=         -278.402296

                     E (Thermal)             CV                S
                      KCal/Mol        Cal/Mol-Kelvin    Cal/Mol-Kelvin
 Total                   40.490             13.921             67.318
 Electronic               0.000              0.000              0.000
 Translational            0.889              2.981             38.481
 Rotational               0.889              2.981             24.125
 Vibrational             38.712              7.959              4.713
 Vibration     1          0.651              1.798              1.894
 Vibration     2          0.752              1.508              1.031
 Vibration     3          0.820              1.333              0.758
 Vibration     4          0.921              1.106              0.513

 Optimization completed.
    -- Stationary point found.
 Normal termination of Gaussian 16 at Thu Jun 16 14:07:30 2022.
