 Gaussian 16, Revision B.01,

 ---------------------------------------
 # b3lyp/gen opt freq CPHF(Grid=OneStep)
 ---------------------------------------

 ---------------------------
 methylketene, B3LYP/pcseg-2
 ---------------------------
 Symbolic Z-matrix:
 Charge =  0 Multiplicity = 1

 SCF Done:  E(RB3LYP) =  -191.998005335     A.U. after   13 cycles
 Optimization completed.
    -- Stationary point found.
 Normal termination of Gaussian 16 at Sat Sep 30 09:54:04 2023.

 ------------------------------------------------------------------
 #N Geom=AllCheck Guess=TCheck SCRF=Check GenChk RB3LYP/ChkBas Freq
 ------------------------------------------------------------------

 Structure from the checkpoint file:  "ch3chco.chk"
 ---------------------------
 methylketene, B3LYP/pcseg-2
 ---------------------------
 Charge =  0 Multiplicity = 1

 SCF Done:  E(RB3LYP) =  -191.998005335     A.U. after    1 cycles

  Exact polarizability:  55.599  -4.497  31.834  -0.002  -0.000  28.085
 Approx polarizability:  86.500 -14.011  45.623  -0.004   0.000  38.428

                      1                      2                      3
                      A                      A                      A
 Frequencies --    144.2219               210.8156               514.8103
 Red. masses --      1.1634                 3.9798                 1.9179
 Frc consts  --      0.0143                 0.1042                 0.2995
 IR Inten    --      0.0270                 2.0866                12.7570

                      4                      5                      6
                      A                      A                      A
 Frequencies --    557.6238               652.1550               900.7388
 Red. masses --      2.5887                 4.5997                 2.3145
 Frc consts  --      0.4743                 1.1526                 1.1064
 IR Inten    --     52.2062                 5.4600                 3.4128

                      7                      8                      9
                      A                      A                      A
 Frequencies --   1058.6856              1082.8904              1154.7181
 Red. masses --      1.3124                 1.9145                 1.4958
 Frc consts  --      0.8667                 1.3227                 1.1751
 IR Inten    --      0.4581                 8.7890                 0.6920

                     10                     11                     12
                      A                      A                      A
 Frequencies --   1411.4057              1421.4044              1484.1550
 Red. masses --      2.6352                 1.2349                 1.0426
 Frc consts  --      3.0929                 1.4701                 1.3531
 IR Inten    --      0.9230                14.8276                 6.4370

                     13                     14                     15
                      A                      A                      A
 Frequencies --   1511.6539              2199.6944              3027.7659
 Red. masses --      1.1007                12.2387                 1.0357
 Frc consts  --      1.4819                34.8909                 5.5942
 IR Inten    --      5.4368               719.0588                39.3364

                     16                     17                     18
                      A                      A                      A
 Frequencies --   3074.6499              3111.0915              3179.8939
 Red. masses --      1.1029                 1.0997                 1.0855
 Frc consts  --      6.1429                 6.2714                 6.4669
 IR Inten    --     18.1821                15.7428                 7.0460

 - Thermochemistry -
 -------------------
 Temperature   298.150 Kelvin.  Pressure   1.00000 Atm.
 Atom     1 has atomic number  6 and mass  12.00000

 Molecular mass:    56.02621 amu.
 Principal axes and moments of inertia in atomic units:
                           1         2         3
     Eigenvalues --    45.58066 402.14034 436.52137
           X            0.99986   0.01669   0.00000
           Y           -0.01669   0.99986  -0.00002
           Z           -0.00000   0.00002   1.00000
 This molecule is an asymmetric top.
 Rotational symmetry number  1.
 Rotational temperatures (Kelvin)      1.90023     0.21538     0.19842
 Rotational constants (GHZ):          39.59445     4.48784     4.13437
 Zero-point vibrational energy     159691.7 (Joules/Mol)
                                   38.16724 (Kcal/Mol)
 Warning -- explicit consideration of   4 degrees of freedom as
           vibrations may cause significant error
 Vibrational temperatures:    207.50   303.32   740.70   802.30   938.31
          (Kelvin)           1295.96  1523.21  1558.04  1661.38  2030.70
                             2045.08  2135.37  2174.93  3164.87  4356.28
                             4423.74  4476.17  4575.16

 Zero-point correction=                           0.060823 (Hartree/Particle)
 Thermal correction to Energy=                    0.065539
 Thermal correction to Enthalpy=                  0.066483
 Thermal correction to Gibbs Free Energy=         0.034042
 Sum of electronic and zero-point Energies=           -191.937182
 Sum of electronic and thermal Energies=              -191.932466
 Sum of electronic and thermal Enthalpies=            -191.931522
 Sum of electronic and thermal Free Energies=         -191.963963

                     E (Thermal)             CV                S
                      KCal/Mol        Cal/Mol-Kelvin    Cal/Mol-Kelvin
 Total                   41.126             14.663             68.278
 Electronic               0.000              0.000              0.000
 Translational            0.889              2.981             37.991
 Rotational               0.889              2.981             23.596
 Vibrational             39.349              8.702              6.690
 Vibration     1          0.616              1.909              2.747
 Vibration     2          0.643              1.824              2.037
 Vibration     3          0.870              1.217              0.622
 Vibration     4          0.913              1.123              0.529

 Optimization completed.
    -- Stationary point found.
 Normal termination of Gaussian 16 at Sat Sep 30 09:57:14 2023.
 Gaussian 16:  ES64L-G16RevB.01 20-Dec-2017

 ---------------------------------
 # rohf/gen geom=check guess=check
 ---------------------------------

 ------------------------------
 methylketene, ROHF/cc-pVTZ-F12
 ------------------------------
 Structure from the checkpoint file:  "ch3chco.chk"
 Charge =  0 Multiplicity = 1

                         Standard orientation:
 ---------------------------------------------------------------------
 Center     Atomic      Atomic             Coordinates (Angstroms)
 Number     Number       Type             X           Y           Z
 ---------------------------------------------------------------------
      1          6           0        0.764753    0.126812   -0.000035
      2          6           0       -0.466681    0.568364    0.000070
      3          6           0       -1.680937   -0.329965   -0.000003
      4          8           0        1.859020   -0.268603    0.000010
      5          1           0       -0.581034    1.644305   -0.000086
      6          1           0       -1.396695   -1.380829   -0.000547
      7          1           0       -2.298511   -0.153388    0.882204
      8          1           0       -2.298732   -0.152533   -0.881844
 ---------------------------------------------------------------------

 SCF Done:  E(ROHF) =  -190.844565012     A.U. after   12 cycles

 The electronic state is 1-A.
 Alpha  occ. eigenvalues --  -20.61632 -11.36821 -11.24402 -11.23953  -1.46268
 Alpha  occ. eigenvalues --   -1.08351  -0.93417  -0.74328  -0.68319  -0.63992
 Alpha  occ. eigenvalues --   -0.61965  -0.57860  -0.55718  -0.53232  -0.34752
 Alpha virt. eigenvalues --    0.04417   0.05086   0.05841   0.07311   0.08741
 Alpha virt. eigenvalues --    0.09178   0.09583   0.10434   0.11171   0.12287
 Alpha virt. eigenvalues --    0.13600   0.17484   0.18541   0.20598   0.21171

 Mulliken charges and spin densities:
               1          2
     1  C    0.356683   0.000000
     2  C   -0.113816   0.000000
     3  C   -0.227981   0.000000
     4  O   -0.465510   0.000000
     5  H    0.185295   0.000000
     6  H    0.087995   0.000000
     7  H    0.088662   0.000000
     8  H    0.088671   0.000000
 Sum of Mulliken charges =  -0.00000   0.00000

 Dipole moment (field-independent basis, Debye):
    X=             -2.1795    Y=              0.5308    Z=             -0.0004  Tot=              2.2432
 Quadrupole moment (field-independent basis, Debye-Ang):
   XX=            -27.0923   YY=            -22.2789   ZZ=            -25.2112
   XY=              1.0314   XZ=             -0.0000   YZ=             -0.0004

 Normal termination of Gaussian 16 at Sat Sep 30 09:58:36 2023.
