 Gaussian 16, Revision B.01,

 ---------------------------------------
 # b3lyp/gen opt freq CPHF(Grid=OneStep)
 ---------------------------------------

 ------------------------------
 1-chloropropyne, B3LYP/pcseg-2
 ------------------------------
 Symbolic Z-matrix:
 Charge =  0 Multiplicity = 1

 SCF Done:  E(RB3LYP) =  -576.333448449     A.U. after   13 cycles
 Optimization completed.
    -- Stationary point found.
 Normal termination of Gaussian 16 at Wed Sep 27 17:56:33 2023.

 ------------------------------------------------------------------
 #N Geom=AllCheck Guess=TCheck SCRF=Check GenChk RB3LYP/ChkBas Freq
 ------------------------------------------------------------------

 Structure from the checkpoint file:  "ch3cccl.chk"
 ------------------------------
 1-chloropropyne, B3LYP/pcseg-2
 ------------------------------
 Charge =  0 Multiplicity = 1

 SCF Done:  E(RB3LYP) =  -576.333448449     A.U. after    1 cycles

  Exact polarizability:  30.140  -0.000  30.140  -0.000  -0.000  77.091
 Approx polarizability:  42.126  -0.000  42.126  -0.000   0.000 119.174

                      1                      2                      3
                      E                      E                      E
 Frequencies --    190.0598               190.0600               389.5119
 Red. masses --      4.3614                 4.3614                 6.3304
 Frc consts  --      0.0928                 0.0928                 0.5659
 IR Inten    --      7.1360                 7.1360                 0.0644

                      4                      5                      6
                      E                     A1                      E
 Frequencies --    389.5119               584.1843              1055.1827
 Red. masses --      6.3304                 7.0779                 1.3886
 Frc consts  --      0.5659                 1.4232                 0.9109
 IR Inten    --      0.0644                 6.6177                 1.2418

                      7                      8                      9
                      E                     A1                     A1
 Frequencies --   1055.1827              1095.3741              1418.6612
 Red. masses --      1.3886                 5.8789                 1.2410
 Frc consts  --      0.9109                 4.1560                 1.4716
 IR Inten    --      1.2418                12.9519                 1.2474

                     10                     11                     12
                      E                      E                     A1
 Frequencies --   1477.8583              1477.8584              2336.8130
 Red. masses --      1.0388                 1.0388                11.8819
 Frc consts  --      1.3367                 1.3367                38.2281
 IR Inten    --      7.5268                 7.5268                15.4546

                     13                     14                     15
                     A1                      E                      E
 Frequencies --   3029.8485              3087.3776              3087.3777
 Red. masses --      1.0340                 1.1010                 1.1010
 Frc consts  --      5.5925                 6.1835                 6.1835
 IR Inten    --     24.9814                 7.2958                 7.2958

 - Thermochemistry -
 -------------------
 Temperature   298.150 Kelvin.  Pressure   1.00000 Atm.
 Atom     1 has atomic number  6 and mass  12.00000

 Molecular mass:    73.99233 amu.
 Principal axes and moments of inertia in atomic units:
                           1         2         3
     Eigenvalues --    11.19845 806.73287 806.73287
           X            0.00000   0.91504  -0.40335
           Y            0.00000   0.40335   0.91504
           Z            1.00000  -0.00000  -0.00000
 This molecule is a prolate symmetric top.
 Rotational symmetry number  3.
 Rotational temperatures (Kelvin)      7.73446     0.10736     0.10736
 Rotational constants (GHZ):         161.15989     2.23710     2.23710
 Zero-point vibrational energy     124799.6 (Joules/Mol)
                                   29.82782 (Kcal/Mol)
 Warning -- explicit consideration of   5 degrees of freedom as
           vibrations may cause significant error
 Vibrational temperatures:    273.45   273.45   560.42   560.42   840.51
          (Kelvin)           1518.17  1518.17  1576.00  2041.14  2126.31
                             2126.31  3362.15  4359.28  4442.05  4442.05

 Zero-point correction=                           0.047534 (Hartree/Particle)
 Thermal correction to Energy=                    0.052430
 Thermal correction to Enthalpy=                  0.053374
 Thermal correction to Gibbs Free Energy=         0.021382
 Sum of electronic and zero-point Energies=           -576.285915
 Sum of electronic and thermal Energies=              -576.281018
 Sum of electronic and thermal Enthalpies=            -576.280074
 Sum of electronic and thermal Free Energies=         -576.312066

                     E (Thermal)             CV                S
                      KCal/Mol        Cal/Mol-Kelvin    Cal/Mol-Kelvin
 Total                   32.900             14.909             67.333
 Electronic               0.000              0.000              0.000
 Translational            0.889              2.981             38.820
 Rotational               0.889              2.981             21.320
 Vibrational             31.123              8.948              7.192
 Vibration     1          0.633              1.854              2.227
 Vibration     2          0.633              1.854              2.227
 Vibration     3          0.757              1.493              1.002
 Vibration     4          0.757              1.493              1.002
 Vibration     5          0.941              1.066              0.478

 Optimization completed.
    -- Stationary point found.
 Normal termination of Gaussian 16 at Wed Sep 27 17:58:11 2023.
 Gaussian 16:  ES64L-G16RevB.01 20-Dec-2017

 ---------------------------------
 # rohf/gen geom=check guess=check
 ---------------------------------

 ---------------------------------
 1-chloropropyne, ROHF/cc-pVTZ-F12
 ---------------------------------
 Structure from the checkpoint file:  "ch3cccl.chk"
 Charge =  0 Multiplicity = 1

                         Standard orientation:
 ---------------------------------------------------------------------
 Center     Atomic      Atomic             Coordinates (Angstroms)
 Number     Number       Type             X           Y           Z
 ---------------------------------------------------------------------
      1          6           0        0.000000    0.000000   -1.086083
      2          6           0        0.000000    0.000000    0.113379
      3          6           0        0.000000    0.000000   -2.540980
      4         17           0        0.000000    0.000000    1.757601
      5          1           0       -0.000000    1.018420   -2.932371
      6          1           0       -0.881978   -0.509210   -2.932371
      7          1           0        0.881978   -0.509210   -2.932371
 ---------------------------------------------------------------------

 SCF Done:  E(ROHF) =  -574.845641148     A.U. after   11 cycles

 The electronic state is 1-A1.
 Alpha  occ. eigenvalues -- -104.87712 -11.27409 -11.25498 -11.24384 -10.60092
 Alpha  occ. eigenvalues --   -8.06830  -8.06622  -8.06622  -1.17880  -1.05818
 Alpha  occ. eigenvalues --   -0.95633  -0.68929  -0.62965  -0.60009  -0.60009
 Alpha  occ. eigenvalues --   -0.53345  -0.53345  -0.37375  -0.37375
 Alpha virt. eigenvalues --    0.04863   0.05460   0.07080   0.07080   0.07953
 Alpha virt. eigenvalues --    0.10357   0.10357   0.10757   0.13738   0.13738
 Alpha virt. eigenvalues --    0.16165   0.16192   0.16192   0.18343   0.19246

 Mulliken charges and spin densities:
               1          2
     1  C   -0.055786   0.000000
     2  C   -0.098532   0.000000
     3  C   -0.316275   0.000000
     4  Cl   0.132630  -0.000000
     5  H    0.112654  -0.000000
     6  H    0.112654  -0.000000
     7  H    0.112654  -0.000000
 Sum of Mulliken charges =  -0.00000   0.00000

 Dipole moment (field-independent basis, Debye):
    X=             -0.0000    Y=              0.0000    Z=             -1.5713  Tot=              1.5713
 Quadrupole moment (field-independent basis, Debye-Ang):
   XX=            -31.2560   YY=            -31.2560   ZZ=            -23.8606
   XY=             -0.0000   XZ=             -0.0000   YZ=             -0.0000

 Normal termination of Gaussian 16 at Wed Sep 27 17:58:57 2023.
