 Gaussian 16, Revision B.01,
 Gaussian 16:  ES64L-G16RevB.01 20-Dec-2017

 --------------------
 # b3lyp/gen opt freq
 --------------------

 ---------------------
 acetyl, B3LYP/pcseg-2
 ---------------------
 Symbolic Z-matrix:
 Charge =  0 Multiplicity = 2

 SCF Done:  E(UB3LYP) =  -153.248823711     A.U. after   15 cycles
 SCF Done:  E(UB3LYP) =  -153.248935550     A.U. after   10 cycles
 SCF Done:  E(UB3LYP) =  -153.248939975     A.U. after    9 cycles
 Optimization completed.
    -- Stationary point found.
 Normal termination of Gaussian 16 at Wed Jun 15 14:03:51 2022.

 ------------------------------------------------------------------
 #N Geom=AllCheck Guess=TCheck SCRF=Check GenChk UB3LYP/ChkBas Freq
 ------------------------------------------------------------------

 Structure from the checkpoint file:  "/wrk/irikura/Gau-5316.chk"
 ---------------------
 acetyl, B3LYP/pcseg-2
 ---------------------
 Charge =  0 Multiplicity = 2

                         Standard orientation:
 ---------------------------------------------------------------------
 Center     Atomic      Atomic             Coordinates (Angstroms)
 Number     Number       Type             X           Y           Z
 ---------------------------------------------------------------------
      1          6           0       -0.963210   -0.665335    0.000000
      2          6           0        0.000000    0.493882    0.000000
      3          8           0        1.177587    0.477015    0.000000
      4          1           0       -0.432909   -1.619901    0.000000
      5          1           0       -1.604266   -0.583747    0.877227
      6          1           0       -1.604266   -0.583747   -0.877227
 ---------------------------------------------------------------------

 SCF Done:  E(UB3LYP) =  -153.248939975     A.U. after    1 cycles

 The electronic state is 2-A'.
 Alpha  occ. eigenvalues --  -19.17252 -10.27200 -10.20755  -1.10067  -0.77345
 Alpha  occ. eigenvalues --   -0.55600  -0.48177  -0.47299  -0.46930  -0.40273
 Alpha  occ. eigenvalues --   -0.40092  -0.20485
 Alpha virt. eigenvalues --   -0.03475   0.01563   0.06358   0.06473   0.09380
 Alpha virt. eigenvalues --    0.12509   0.16224   0.16446   0.19690   0.19773
 Alpha virt. eigenvalues --    0.28824   0.32009   0.32226   0.32752   0.35052

  Beta  occ. eigenvalues --  -19.16415 -10.26170 -10.20417  -1.08535  -0.76165
  Beta  occ. eigenvalues --   -0.53738  -0.46447  -0.45987  -0.45622  -0.39804
  Beta  occ. eigenvalues --   -0.36575
  Beta virt. eigenvalues --   -0.07414  -0.01926   0.02048   0.06436   0.06728
  Beta virt. eigenvalues --    0.09707   0.12803   0.16321   0.17247   0.20080
  Beta virt. eigenvalues --    0.20118   0.30455   0.32182   0.32994   0.33056

 Mulliken charges and spin densities:
               1          2
     1  C   -0.003277   0.055747
     2  C    0.131233   0.656653
     3  O   -0.267470   0.230807
     4  H    0.037990   0.059284
     5  H    0.050762  -0.001245
     6  H    0.050762  -0.001245
 Sum of Mulliken charges =  -0.00000   1.00000

 Dipole moment (field-independent basis, Debye):
    X=             -2.1612    Y=             -1.4434    Z=             -0.0000  Tot=              2.5988
 Quadrupole moment (field-independent basis, Debye-Ang):
   XX=            -19.3335   YY=            -19.0424   ZZ=            -17.1902
   XY=             -0.0244   XZ=             -0.0000   YZ=             -0.0000

  Exact polarizability:  33.647   2.824  28.868   0.000  -0.000  22.274
 Approx polarizability:  49.957   2.205  35.172   0.000   0.000  30.265

                      1                      2                      3
                     A"                     A'                     A'
 Frequencies --    108.3590               470.5639               851.3721
 Red. masses --      1.6065                 3.2738                 4.1242
 Frc consts  --      0.0111                 0.4271                 1.7613
 IR Inten    --      0.8582                 5.4449                 5.7889

                      4                      5                      6
                     A"                     A'                     A'
 Frequencies --    955.7051              1050.3356              1356.9792
 Red. masses --      1.3218                 1.6555                 1.1920
 Frc consts  --      0.7113                 1.0761                 1.2932
 IR Inten    --      0.0758                15.8498                14.0873

                      7                      8                      9
                     A"                     A'                     A'
 Frequencies --   1452.8337              1456.6261              1923.4912
 Red. masses --      1.0487                 1.0493                12.2171
 Frc consts  --      1.3041                 1.3117                26.6316
 IR Inten    --     12.9834                23.0510               165.9590

                     10                     11                     12
                     A'                     A'                     A"
 Frequencies --   3022.2073              3113.5570              3119.5993
 Red. masses --      1.0350                 1.1007                 1.0999
 Frc consts  --      5.5700                 6.2866                 6.3070
 IR Inten    --      9.3739                 8.7411                 0.8535

 - Thermochemistry -
 -------------------
 Temperature   298.150 Kelvin.  Pressure   1.00000 Atm.
 Atom     1 has atomic number  6 and mass  12.00000

 Molecular mass:    43.01839 amu.
 Principal axes and moments of inertia in atomic units:
                           1         2         3
     Eigenvalues --    21.16705 180.67834 190.76725
           X            0.87260  -0.48843   0.00000
           Y            0.48843   0.87260   0.00000
           Z            0.00000   0.00000   1.00000
 This molecule is an asymmetric top.
 Rotational symmetry number  1.
 Rotational temperatures (Kelvin)      4.09192     0.47938     0.45403
 Rotational constants (GHZ):          85.26182     9.98870     9.46044
 Zero-point vibrational energy     112937.2 (Joules/Mol)
                                   26.99264 (Kcal/Mol)
 Warning -- explicit consideration of   2 degrees of freedom as
           vibrations may cause significant error
 Vibrational temperatures:    155.90   677.04  1224.93  1375.05  1511.20
          (Kelvin)           1952.39  2090.30  2095.76  2767.47  4348.28
                             4479.71  4488.41

 Zero-point correction=                           0.043016 (Hartree/Particle)
 Thermal correction to Energy=                    0.046974
 Thermal correction to Enthalpy=                  0.047918
 Thermal correction to Gibbs Free Energy=         0.017395
 Sum of electronic and zero-point Energies=           -153.205924
 Sum of electronic and thermal Energies=              -153.201966
 Sum of electronic and thermal Enthalpies=            -153.201022
 Sum of electronic and thermal Free Energies=         -153.231545

                     E (Thermal)             CV                S
                      KCal/Mol        Cal/Mol-Kelvin    Cal/Mol-Kelvin
 Total                   29.477             10.857             64.241
 Electronic               0.000              0.000              1.377
 Translational            0.889              2.981             37.204
 Rotational               0.889              2.981             21.217
 Vibrational             27.699              4.895              4.443
 Vibration     1          0.606              1.943              3.298
 Vibration     2          0.828              1.315              0.736

                           ! Non-Optimized Parameters !
 Normal termination of Gaussian 16 at Wed Jun 15 14:04:28 2022.
