 Gaussian 16, Revision B.01,

 ---------------------------------------
 # b3lyp/gen opt freq CPHF(Grid=OneStep)
 ---------------------------------------

 ---------------------------
 pyruvic acid, B3LYP/pcseg-2
 ---------------------------
 Symbolic Z-matrix:
 Charge =  0 Multiplicity = 1

 SCF Done:  E(RB3LYP) =  -342.552910774     A.U. after   13 cycles
 Optimization completed.
    -- Stationary point found.
 Normal termination of Gaussian 16 at Fri Sep 29 07:17:21 2023.

 ------------------------------------------------------------------
 #N Geom=AllCheck Guess=TCheck SCRF=Check GenChk RB3LYP/ChkBas Freq
 ------------------------------------------------------------------

 Structure from the checkpoint file:  "ch3cocooh.chk"
 ---------------------------
 pyruvic acid, B3LYP/pcseg-2
 ---------------------------
 Charge =  0 Multiplicity = 1

 SCF Done:  E(RB3LYP) =  -342.552910774     A.U. after    1 cycles

  Exact polarizability:  54.749   1.451  48.250  -0.000   0.000  30.711
 Approx polarizability:  86.467  12.162  64.445   0.000  -0.000  44.968

                      1                      2                      3
                     A"                     A"                     A'
 Frequencies --     86.2248               114.2487               251.5131
 Red. masses --      2.3208                 1.4604                 4.1555
 Frc consts  --      0.0102                 0.0112                 0.1549
 IR Inten    --      7.4237                 1.0854                26.0075

                      4                      5                      6
                     A'                     A"                     A'
 Frequencies --    390.3860               396.1683               524.4452
 Red. masses --      4.7031                 4.3869                 6.3251
 Frc consts  --      0.4223                 0.4057                 1.0250
 IR Inten    --     10.5846                17.6790                 3.2933

                      7                      8                      9
                     A'                     A"                     A"
 Frequencies --    609.8954               702.9201               741.0151
 Red. masses --      4.3169                 1.5876                 1.6481
 Frc consts  --      0.9461                 0.4622                 0.5332
 IR Inten    --     17.7820                81.2471                22.5489

                     10                     11                     12
                     A'                     A'                     A"
 Frequencies --    765.5830               979.8551              1037.6974
 Red. masses --      6.6505                 2.0272                 1.9845
 Frc consts  --      2.2966                 1.1468                 1.2590
 IR Inten    --      8.7981                21.0524                 1.5132

                     13                     14                     15
                     A'                     A'                     A'
 Frequencies --   1155.0518              1241.5249              1375.6066
 Red. masses --      3.2154                 2.1017                 1.7199
 Frc consts  --      2.5275                 1.9086                 1.9175
 IR Inten    --     69.9662                84.9785               358.0729

                     16                     17                     18
                     A'                     A'                     A"
 Frequencies --   1400.0275              1454.6898              1456.9259
 Red. masses --      1.5581                 1.0618                 1.0471
 Frc consts  --      1.7994                 1.3239                 1.3095
 IR Inten    --      5.5515                14.9850                11.6334

                     19                     20                     21
                     A'                     A'                     A'
 Frequencies --   1777.6294              1839.2805              3047.9585
 Red. masses --     10.9324                10.2970                 1.0363
 Frc consts  --     20.3539                20.5238                 5.6723
 IR Inten    --    115.3683               259.3450                 0.5649

                     22                     23                     24
                     A"                     A'                     A'
 Frequencies --   3101.1256              3159.9529              3629.4262
 Red. masses --      1.0970                 1.1041                 1.0643
 Frc consts  --      6.2160                 6.4959                 8.2602
 IR Inten    --      0.3691                 4.6990               116.4175

 - Thermochemistry -
 -------------------
 Temperature   298.150 Kelvin.  Pressure   1.00000 Atm.
 Atom     1 has atomic number  6 and mass  12.00000

 Molecular mass:    88.01604 amu.
 Principal axes and moments of inertia in atomic units:
                           1         2         3
     Eigenvalues --   324.92030 504.70681 818.70110
           X           -0.24708   0.96899   0.00000
           Y            0.96899   0.24708   0.00000
           Z            0.00000   0.00000   1.00000
 This molecule is an asymmetric top.
 Rotational symmetry number  1.
 Rotational temperatures (Kelvin)      0.26657     0.17161     0.10579
 Rotational constants (GHZ):           5.55441     3.57582     2.20440
 Zero-point vibrational energy     186851.6 (Joules/Mol)
                                   44.65861 (Kcal/Mol)
 Warning -- explicit consideration of   7 degrees of freedom as
           vibrations may cause significant error
 Vibrational temperatures:    124.06   164.38   361.87   561.68   570.00
          (Kelvin)            754.56   877.50  1011.35  1066.16  1101.50
                             1409.79  1493.02  1661.86  1786.28  1979.19
                             2014.33  2092.97  2096.19  2557.61  2646.31
                             4385.33  4461.83  4546.47  5221.93

 Zero-point correction=                           0.071168 (Hartree/Particle)
 Thermal correction to Energy=                    0.077381
 Thermal correction to Enthalpy=                  0.078325
 Thermal correction to Gibbs Free Energy=         0.041007
 Sum of electronic and zero-point Energies=           -342.481743
 Sum of electronic and thermal Energies=              -342.475530
 Sum of electronic and thermal Enthalpies=            -342.474586
 Sum of electronic and thermal Free Energies=         -342.511904

                     E (Thermal)             CV                S
                      KCal/Mol        Cal/Mol-Kelvin    Cal/Mol-Kelvin
 Total                   48.557             20.678             78.543
 Electronic               0.000              0.000              0.000
 Translational            0.889              2.981             39.338
 Rotational               0.889              2.981             26.398
 Vibrational             46.780             14.716             12.807
 Vibration     1          0.601              1.959              3.744
 Vibration     2          0.607              1.938              3.195
 Vibration     3          0.663              1.760              1.720
 Vibration     4          0.758              1.491              0.999
 Vibration     5          0.763              1.478              0.977
 Vibration     6          0.879              1.196              0.600
 Vibration     7          0.969              1.011              0.433

 Optimization completed.
    -- Stationary point found.
 Normal termination of Gaussian 16 at Fri Sep 29 07:24:11 2023.
 Gaussian 16:  ES64L-G16RevB.01 20-Dec-2017

 ---------------------------------
 # rohf/gen geom=check guess=check
 ---------------------------------

 ------------------------------
 pyruvic acid, ROHF/cc-pVTZ-F12
 ------------------------------
 Structure from the checkpoint file:  "ch3cocooh.chk"
 Charge =  0 Multiplicity = 1

                         Standard orientation:
 ---------------------------------------------------------------------
 Center     Atomic      Atomic             Coordinates (Angstroms)
 Number     Number       Type             X           Y           Z
 ---------------------------------------------------------------------
      1          6           0        0.033014   -0.818012    0.000000
      2          6           0        0.000000    0.733783    0.000000
      3          8           0       -0.955292   -1.495074    0.000000
      4          8           0        1.274824   -1.303527    0.000000
      5          1           0        1.879831   -0.540049    0.000000
      6          8           0        1.059517    1.318078    0.000000
      7          6           0       -1.342537    1.385442    0.000000
      8          1           0       -1.233507    2.465551    0.000000
      9          1           0       -1.910791    1.055702    0.871183
     10          1           0       -1.910791    1.055702   -0.871183
 ---------------------------------------------------------------------

 SCF Done:  E(ROHF) =  -340.686817916     A.U. after   12 cycles

 The electronic state is 1-A'.
 Alpha  occ. eigenvalues --  -20.62531 -20.60424 -20.57451 -11.40714 -11.38032
 Alpha  occ. eigenvalues --  -11.25918  -1.49053  -1.43842  -1.39163  -1.05443
 Alpha  occ. eigenvalues --   -0.91448  -0.82731  -0.74634  -0.69869  -0.66656
 Alpha  occ. eigenvalues --   -0.65643  -0.62670  -0.61526  -0.57435  -0.54038
 Alpha  occ. eigenvalues --   -0.53891  -0.50087  -0.44505
 Alpha virt. eigenvalues --    0.04049   0.05400   0.05642   0.06252   0.06372
 Alpha virt. eigenvalues --    0.08269   0.08723   0.09083   0.09705   0.10059
 Alpha virt. eigenvalues --    0.11876   0.15607   0.16569   0.18151   0.18519

 Mulliken charges and spin densities:
               1          2
     1  C    0.690754   0.000000
     2  C    0.594741   0.000000
     3  O   -0.560481   0.000000
     4  O   -0.652263   0.000000
     5  H    0.439734   0.000000
     6  O   -0.593850   0.000000
     7  C   -0.321474   0.000000
     8  H    0.145921   0.000000
     9  H    0.128459   0.000000
    10  H    0.128459   0.000000
 Sum of Mulliken charges =  -0.00000   0.00000

 Dipole moment (field-independent basis, Debye):
    X=             -0.5091    Y=              2.5451    Z=             -0.0000  Tot=              2.5955
 Quadrupole moment (field-independent basis, Debye-Ang):
   XX=            -33.8863   YY=            -41.6821   ZZ=            -32.7564
   XY=             -5.6411   XZ=              0.0000   YZ=              0.0000

 Normal termination of Gaussian 16 at Fri Sep 29 07:28:00 2023.
