 Gaussian 16, Revision B.01,
 Gaussian 16:  ES64L-G16RevB.01 20-Dec-2017

 -------------------------------
 # b3lyp/gen opt freq symm=loose
 -------------------------------

 -------------------------
 ethanimine, B3LYP/pcseg-2
 -------------------------
 Symbolic Z-matrix:
 Charge =  0 Multiplicity = 1

 SCF Done:  E(RB3LYP) =  -134.014228826     A.U. after   12 cycles
 SCF Done:  E(RB3LYP) =  -134.014304377     A.U. after    8 cycles
 SCF Done:  E(RB3LYP) =  -134.014305494     A.U. after    7 cycles
 Optimization completed.
    -- Stationary point found.
 Normal termination of Gaussian 16 at Fri Sep  8 17:52:46 2023.

 ------------------------------------------------------------------
 #N Geom=AllCheck Guess=TCheck SCRF=Check GenChk RB3LYP/ChkBas Freq
 ------------------------------------------------------------------

 Structure from the checkpoint file:  "/wrk/irikura/Gau-13128.chk"
 -------------------------
 ethanimine, B3LYP/pcseg-2
 -------------------------
 Charge =  0 Multiplicity = 1

                         Standard orientation:
 ---------------------------------------------------------------------
 Center     Atomic      Atomic             Coordinates (Angstroms)
 Number     Number       Type             X           Y           Z
 ---------------------------------------------------------------------
      1          6           0       -1.030278   -0.636884    0.000000
      2          6           0        0.000000    0.445775    0.000000
      3          7           0        1.240598    0.191097    0.000000
      4          1           0       -0.554453   -1.614994    0.000000
      5          1           0       -1.676233   -0.546320    0.876807
      6          1           0       -1.676233   -0.546320   -0.876807
      7          1           0       -0.390573    1.470892    0.000000
      8          1           0        1.794974    1.045719    0.000000
 ---------------------------------------------------------------------

 SCF Done:  E(RB3LYP) =  -134.014305494     A.U. after    1 cycles

 The electronic state is 1-A'.
 Alpha  occ. eigenvalues --  -14.30256 -10.22347 -10.17321  -0.90933  -0.73965
 Alpha  occ. eigenvalues --   -0.57328  -0.51818  -0.43170  -0.41089  -0.39582
 Alpha  occ. eigenvalues --   -0.31874  -0.27084
 Alpha virt. eigenvalues --   -0.01315   0.01294   0.03734   0.06262   0.07064
 Alpha virt. eigenvalues --    0.09187   0.12827   0.16176   0.18047   0.19962
 Alpha virt. eigenvalues --    0.21301   0.21679   0.26832   0.29153   0.33259

 Mulliken charges:
               1
     1  C   -0.000377
     2  C    0.067767
     3  N   -0.280382
     4  H    0.047226
     5  H    0.032700
     6  H    0.032700
     7  H   -0.006452
     8  H    0.106816
 Sum of Mulliken charges =   0.00000

 Dipole moment (field-independent basis, Debye):
    X=             -1.5523    Y=              1.3906    Z=             -0.0000  Tot=              2.0841
 Quadrupole moment (field-independent basis, Debye-Ang):
   XX=            -20.1972   YY=            -18.0539   ZZ=            -20.0678
   XY=              2.5999   XZ=             -0.0000   YZ=              0.0000

  Exact polarizability:  43.684   1.777  32.992  -0.000   0.000  25.303
 Approx polarizability:  62.663  -1.381  42.716  -0.000  -0.000  35.137

                      1                      2                      3
                     A"                     A'                     A"
 Frequencies --    187.4204               492.1113               682.0410
 Red. masses --      1.2322                 2.3771                 1.1129
 Frc consts  --      0.0255                 0.3392                 0.3050
 IR Inten    --      1.8345                17.7592                54.5956

                      4                      5                      6
                     A'                     A'                     A"
 Frequencies --    921.2833              1058.1855              1075.2233
 Red. masses --      2.1617                 1.4352                 1.3296
 Frc consts  --      1.0810                 0.9468                 0.9056
 IR Inten    --      9.2124                32.2449                14.7881

                      7                      8                      9
                     A"                     A'                     A'
 Frequencies --   1130.4232              1271.2729              1391.0942
 Red. masses --      1.3728                 1.2301                 1.2447
 Frc consts  --      1.0336                 1.1713                 1.4191
 IR Inten    --      3.7492                30.2044                13.8534

                     10                     11                     12
                     A'                     A'                     A"
 Frequencies --   1431.1826              1468.9988              1476.5150
 Red. masses --      1.4993                 1.0550                 1.0458
 Frc consts  --      1.8094                 1.3414                 1.3433
 IR Inten    --     20.8561                17.0732                 9.6279

                     13                     14                     15
                     A'                     A'                     A'
 Frequencies --   1721.7905              2993.1074              3026.3854
 Red. masses --      6.0168                 1.0843                 1.0386
 Frc consts  --     10.5094                 5.7232                 5.6046
 IR Inten    --     79.4208                63.7469                11.6632

                     16                     17                     18
                     A"                     A'                     A'
 Frequencies --   3072.9712              3130.7670              3451.8018
 Red. masses --      1.0984                 1.1010                 1.0755
 Frc consts  --      6.1113                 6.3580                 7.5502
 IR Inten    --     12.7295                11.0794                 0.8246

 - Thermochemistry -
 -------------------
 Temperature   298.150 Kelvin.  Pressure   1.00000 Atm.
 Atom     1 has atomic number  6 and mass  12.00000

 Molecular mass:    43.04220 amu.
 Principal axes and moments of inertia in atomic units:
                           1         2         3
     Eigenvalues --    33.29712 184.16159 206.39117
           X            0.91985  -0.39227   0.00000
           Y            0.39227   0.91985   0.00000
           Z            0.00000   0.00000   1.00000
 This molecule is an asymmetric top.
 Rotational symmetry number  1.
 Rotational temperatures (Kelvin)      2.60124     0.47031     0.41966
 Rotational constants (GHZ):          54.20112     9.79977     8.74428
 Zero-point vibrational energy     179335.6 (Joules/Mol)
                                   42.86224 (Kcal/Mol)
 Warning -- explicit consideration of   2 degrees of freedom as
           vibrations may cause significant error
 Vibrational temperatures:    269.66   708.04   981.30  1325.52  1522.49
          (Kelvin)           1547.01  1626.43  1829.08  2001.47  2059.15
                             2113.56  2124.38  2477.27  4306.41  4354.29
                             4421.32  4504.48  4966.37

 Zero-point correction=                           0.068305 (Hartree/Particle)
 Thermal correction to Energy=                    0.072237
 Thermal correction to Enthalpy=                  0.073181
 Thermal correction to Gibbs Free Energy=         0.043414
 Sum of electronic and zero-point Energies=           -133.946000
 Sum of electronic and thermal Energies=              -133.942068
 Sum of electronic and thermal Enthalpies=            -133.941124
 Sum of electronic and thermal Free Energies=         -133.970892

                     E (Thermal)             CV                S
                      KCal/Mol        Cal/Mol-Kelvin    Cal/Mol-Kelvin
 Total                   45.330             11.863             62.651
 Electronic               0.000              0.000              0.000
 Translational            0.889              2.981             37.205
 Rotational               0.889              2.981             21.764
 Vibrational             43.552              5.901              3.682
 Vibration     1          0.632              1.857              2.253
 Vibration     2          0.848              1.268              0.678

 Optimization completed.
    -- Stationary point found.
 Normal termination of Gaussian 16 at Fri Sep  8 17:53:44 2023.
