 Gaussian 16, Revision B.01,

 ---------------------------------------
 # b3lyp/gen opt freq CPHF(Grid=OneStep)
 ---------------------------------------

 ---------------------------------
 1,1-difluoroethane, B3LYP/pcseg-2
 ---------------------------------
 Symbolic Z-matrix:
 Charge =  0 Multiplicity = 1

 SCF Done:  E(RB3LYP) =  -278.435779677     A.U. after   11 cycles
 Optimization completed.
    -- Stationary point found.
 Normal termination of Gaussian 16 at Fri Sep 29 04:08:25 2023.

 ------------------------------------------------------------------
 #N Geom=AllCheck Guess=TCheck SCRF=Check GenChk RB3LYP/ChkBas Freq
 ------------------------------------------------------------------

 Structure from the checkpoint file:  "ch3chf2.chk"
 ---------------------------------
 1,1-difluoroethane, B3LYP/pcseg-2
 ---------------------------------
 Charge =  0 Multiplicity = 1

 SCF Done:  E(RB3LYP) =  -278.435779677     A.U. after    1 cycles

  Exact polarizability:  27.467  -1.048  27.799  -0.000  -0.000  27.759
 Approx polarizability:  34.044   0.458  35.560   0.000  -0.000  37.696

                      1                      2                      3
                     A"                     A"                     A'
 Frequencies --    228.0374               382.1001               462.7447
 Red. masses --      1.0639                 3.0772                 4.5587
 Frc consts  --      0.0326                 0.2647                 0.5751
 IR Inten    --      0.0535                 0.2255                12.1559

                      4                      5                      6
                     A'                     A'                     A"
 Frequencies --    565.2758               868.9798               936.6309
 Red. masses --      4.1340                 2.2693                 2.3900
 Frc consts  --      0.7783                 1.0096                 1.2353
 IR Inten    --      5.7995                 8.8921                95.0628

                      7                      8                      9
                     A'                     A"                     A'
 Frequencies --   1131.0260              1132.5961              1157.4659
 Red. masses --      3.3279                 2.3052                 2.2892
 Frc consts  --      2.5082                 1.7422                 1.8070
 IR Inten    --    113.4889               136.5025                30.7931

                     10                     11                     12
                     A"                     A'                     A'
 Frequencies --   1381.4826              1391.6238              1430.4070
 Red. masses --      1.1505                 1.2263                 1.4382
 Frc consts  --      1.2937                 1.3992                 1.7338
 IR Inten    --     18.4363                 5.3968                61.7574

                     13                     14                     15
                     A'                     A"                     A'
 Frequencies --   1483.9772              1484.3648              3054.6862
 Red. masses --      1.0480                 1.0501                 1.0344
 Frc consts  --      1.3597                 1.3633                 5.6869
 IR Inten    --      5.0621                 1.2693                 2.6928

                     16                     17                     18
                     A'                     A"                     A'
 Frequencies --   3071.4683              3130.5439              3135.4852
 Red. masses --      1.0878                 1.1027                 1.1033
 Frc consts  --      6.0461                 6.3673                 6.3905
 IR Inten    --     33.7363                 8.8997                14.2455

 - Thermochemistry -
 -------------------
 Temperature   298.150 Kelvin.  Pressure   1.00000 Atm.
 Atom     1 has atomic number  6 and mass  12.00000

 Molecular mass:    66.02811 amu.
 Principal axes and moments of inertia in atomic units:
                           1         2         3
     Eigenvalues --   191.68553 202.13536 351.43943
           X           -0.58392   0.00000   0.81181
           Y            0.81181   0.00000   0.58392
           Z            0.00000   1.00000  -0.00000
 This molecule is an asymmetric top.
 Rotational symmetry number  1.
 Rotational temperatures (Kelvin)      0.45185     0.42849     0.24645
 Rotational constants (GHZ):           9.41511     8.92838     5.13528
 Zero-point vibrational energy     158079.9 (Joules/Mol)
                                   37.78200 (Kcal/Mol)
 Warning -- explicit consideration of   4 degrees of freedom as
           vibrations may cause significant error
 Vibrational temperatures:    328.09   549.76   665.79   813.31  1250.27
          (Kelvin)           1347.60  1627.29  1629.55  1665.34  1987.65
                             2002.24  2058.04  2135.11  2135.67  4395.01
                             4419.16  4504.15  4511.26

 Zero-point correction=                           0.060209 (Hartree/Particle)
 Thermal correction to Energy=                    0.064525
 Thermal correction to Enthalpy=                  0.065469
 Thermal correction to Gibbs Free Energy=         0.033484
 Sum of electronic and zero-point Energies=           -278.375570
 Sum of electronic and thermal Energies=              -278.371255
 Sum of electronic and thermal Enthalpies=            -278.370311
 Sum of electronic and thermal Free Energies=         -278.402296

                     E (Thermal)             CV                S
                      KCal/Mol        Cal/Mol-Kelvin    Cal/Mol-Kelvin
 Total                   40.490             13.921             67.318
 Electronic               0.000              0.000              0.000
 Translational            0.889              2.981             38.481
 Rotational               0.889              2.981             24.125
 Vibrational             38.713              7.959              4.713
 Vibration     1          0.651              1.798              1.894
 Vibration     2          0.752              1.508              1.031
 Vibration     3          0.820              1.333              0.758
 Vibration     4          0.921              1.106              0.513

 Optimization completed.
    -- Stationary point found.
 Normal termination of Gaussian 16 at Fri Sep 29 04:11:09 2023.
 Gaussian 16:  ES64L-G16RevB.01 20-Dec-2017

 ---------------------------------
 # rohf/gen geom=check guess=check
 ---------------------------------

 ------------------------------------
 1,1-difluoroethane, ROHF/cc-pVTZ-F12
 ------------------------------------
 Structure from the checkpoint file:  "ch3chf2.chk"
 Charge =  0 Multiplicity = 1

                         Standard orientation:
 ---------------------------------------------------------------------
 Center     Atomic      Atomic             Coordinates (Angstroms)
 Number     Number       Type             X           Y           Z
 ---------------------------------------------------------------------
      1          6           0        0.321211    0.165682    0.000000
      2          6           0       -0.897912    1.043719   -0.000000
      3          1           0        1.267424    0.708843    0.000000
      4          9           0        0.321211   -0.652293    1.102187
      5          9           0        0.321211   -0.652293   -1.102187
      6          1           0       -1.793473    0.424335   -0.000000
      7          1           0       -0.897773    1.675844    0.886558
      8          1           0       -0.897773    1.675844   -0.886558
 ---------------------------------------------------------------------

 SCF Done:  E(ROHF) =  -277.075598337     A.U. after   10 cycles

 The electronic state is 1-A'.
 Alpha  occ. eigenvalues --  -26.30002 -26.30001 -11.40541 -11.24164  -1.64792
 Alpha  occ. eigenvalues --   -1.58825  -1.05232  -0.89170  -0.77089  -0.74981
 Alpha  occ. eigenvalues --   -0.72306  -0.66093  -0.62460  -0.61702  -0.57229
 Alpha  occ. eigenvalues --   -0.56502  -0.51885
 Alpha virt. eigenvalues --    0.04566   0.05452   0.07133   0.07435   0.09299
 Alpha virt. eigenvalues --    0.09480   0.09769   0.16764   0.17021   0.19254
 Alpha virt. eigenvalues --    0.21315   0.23306   0.24565   0.24722   0.25248

 Mulliken charges and spin densities:
               1          2
     1  C    0.522374   0.000000
     2  C   -0.207354   0.000000
     3  H    0.155117   0.000000
     4  F   -0.390229   0.000000
     5  F   -0.390229   0.000000
     6  H    0.108644   0.000000
     7  H    0.100839   0.000000
     8  H    0.100839   0.000000
 Sum of Mulliken charges =  -0.00000   0.00000

 Dipole moment (field-independent basis, Debye):
    X=             -0.3601    Y=              2.5386    Z=             -0.0000  Tot=              2.5640
 Quadrupole moment (field-independent basis, Debye-Ang):
   XX=            -21.2206   YY=            -22.9193   ZZ=            -25.7789
   XY=              0.5960   XZ=              0.0000   YZ=              0.0000

 Normal termination of Gaussian 16 at Fri Sep 29 04:11:50 2023.
