 Gaussian 16, Revision B.01,
 Gaussian 16:  ES64L-G16RevB.01 20-Dec-2017

 --------------------
 # b3lyp/gen opt freq
 --------------------

 -------------------------
 ethylidene, B3LYP/pcseg-2
 -------------------------
 Symbolic Z-matrix:
 Charge =  0 Multiplicity = 3

 SCF Done:  E(UB3LYP) =  -78.5112340296     A.U. after   12 cycles
 SCF Done:  E(UB3LYP) =  -78.5113026240     A.U. after    9 cycles
 SCF Done:  E(UB3LYP) =  -78.5113053373     A.U. after    8 cycles
 SCF Done:  E(UB3LYP) =  -78.5113058721     A.U. after    7 cycles
 Optimization completed.
    -- Stationary point found.
 Normal termination of Gaussian 16 at Sat Jun 18 13:13:16 2022.

 ------------------------------------------------------------------
 #N Geom=AllCheck Guess=TCheck SCRF=Check GenChk UB3LYP/ChkBas Freq
 ------------------------------------------------------------------

 Structure from the checkpoint file:  "/wrk/irikura/Gau-20988.chk"
 -------------------------
 ethylidene, B3LYP/pcseg-2
 -------------------------
 Charge =  0 Multiplicity = 3

                         Standard orientation:
 ---------------------------------------------------------------------
 Center     Atomic      Atomic             Coordinates (Angstroms)
 Number     Number       Type             X           Y           Z
 ---------------------------------------------------------------------
      1          6           0        0.046788   -0.609871    0.000000
      2          6           0        0.046788    0.849839    0.000000
      3          1           0       -0.717343    1.612369    0.000000
      4          1           0        1.066804   -1.003082    0.000000
      5          1           0       -0.455461   -1.024549    0.884770
      6          1           0       -0.455461   -1.024549   -0.884770
 ---------------------------------------------------------------------

 SCF Done:  E(UB3LYP) =  -78.5113058721     A.U. after    1 cycles

 The electronic state is 3-A".
 Alpha  occ. eigenvalues --  -10.20144 -10.18276  -0.77005  -0.60293  -0.44629
 Alpha  occ. eigenvalues --   -0.43247  -0.41323  -0.24891  -0.21226
 Alpha virt. eigenvalues --    0.02064   0.04737   0.07287   0.07730   0.13681
 Alpha virt. eigenvalues --    0.16798   0.18949   0.19463   0.20614   0.23826
 Alpha virt. eigenvalues --    0.25534   0.33500   0.33959   0.34027   0.36024

  Beta  occ. eigenvalues --  -10.18337 -10.17223  -0.74463  -0.55227  -0.42651
  Beta  occ. eigenvalues --   -0.41515  -0.39896
  Beta virt. eigenvalues --   -0.07416  -0.04555   0.02265   0.05359   0.07463
  Beta virt. eigenvalues --    0.07926   0.14182   0.17823   0.19784   0.20441
  Beta virt. eigenvalues --    0.24811   0.26025   0.27996   0.33928   0.34776

 Mulliken charges and spin densities:
               1          2
     1  C   -0.029064  -0.098989
     2  C   -0.156305   1.934224
     3  H    0.064098  -0.008313
     4  H    0.045925   0.031500
     5  H    0.037673   0.070788
     6  H    0.037673   0.070788
 Sum of Mulliken charges =   0.00000   2.00000

 Dipole moment (field-independent basis, Debye):
    X=             -0.5792    Y=             -0.7678    Z=              0.0000  Tot=              0.9618
 Quadrupole moment (field-independent basis, Debye-Ang):
   XX=            -13.7764   YY=            -13.9470   ZZ=            -14.5923
   XY=             -1.2540   XZ=             -0.0000   YZ=              0.0000

  Exact polarizability:  22.133  -0.867  30.405   0.000  -0.000  21.686
 Approx polarizability:  28.340  -0.977  35.988   0.000   0.000  27.790

                      1                      2                      3
                     A"                     A'                     A"
 Frequencies --    180.5339               758.1065               994.2746
 Red. masses --      1.1164                 1.0622                 1.3194
 Frc consts  --      0.0214                 0.3597                 0.7685
 IR Inten    --     34.5340                11.5981                 1.2267

                      4                      5                      6
                     A'                     A'                     A'
 Frequencies --   1068.4109              1101.5492              1387.4653
 Red. masses --      1.5224                 4.2377                 1.2082
 Frc consts  --      1.0239                 3.0296                 1.3703
 IR Inten    --      1.8629                 0.0630                 1.6492

                      7                      8                      9
                     A"                     A'                     A'
 Frequencies --   1448.9592              1449.4450              2947.7318
 Red. masses --      1.0450                 1.0410                 1.0393
 Frc consts  --      1.2927                 1.2886                 5.3208
 IR Inten    --      7.0879                 6.4307                23.9503

                     10                     11                     12
                     A"                     A'                     A'
 Frequencies --   2981.9573              3048.3911              3216.5162
 Red. masses --      1.0980                 1.0892                 1.0909
 Frc consts  --      5.7527                 5.9635                 6.6498
 IR Inten    --     19.5832                10.6655                 4.8824

 - Thermochemistry -
 -------------------
 Temperature   298.150 Kelvin.  Pressure   1.00000 Atm.
 Atom     1 has atomic number  6 and mass  12.00000

 Molecular mass:    28.03130 amu.
 Principal axes and moments of inertia in atomic units:
                           1         2         3
     Eigenvalues --    12.91866  73.10167  74.75086
           X           -0.07122   0.99746   0.00000
           Y            0.99746   0.07122   0.00000
           Z           -0.00000   0.00000   1.00000
 This molecule is an asymmetric top.
 Rotational symmetry number  1.
 Rotational temperatures (Kelvin)      6.70456     1.18484     1.15870
 Rotational constants (GHZ):         139.70032    24.68810    24.14342
 Zero-point vibrational energy     123115.7 (Joules/Mol)
                                   29.42536 (Kcal/Mol)
 Warning -- explicit consideration of   1 degrees of freedom as
           vibrations may cause significant error
 Vibrational temperatures:    259.75  1090.75  1430.54  1537.20  1584.88
          (Kelvin)           1996.25  2084.73  2085.43  4241.13  4290.37
                             4385.95  4627.85

 Zero-point correction=                           0.046892 (Hartree/Particle)
 Thermal correction to Energy=                    0.050519
 Thermal correction to Enthalpy=                  0.051463
 Thermal correction to Gibbs Free Energy=         0.023026
 Sum of electronic and zero-point Energies=            -78.464414
 Sum of electronic and thermal Energies=               -78.460787
 Sum of electronic and thermal Enthalpies=             -78.459843
 Sum of electronic and thermal Free Energies=          -78.488280

                     E (Thermal)             CV                S
                      KCal/Mol        Cal/Mol-Kelvin    Cal/Mol-Kelvin
 Total                   31.701              9.810             59.850
 Electronic               0.000              0.000              2.183
 Translational            0.889              2.981             35.927
 Rotational               0.889              2.981             18.896
 Vibrational             29.924              3.849              2.844
 Vibration     1          0.629              1.866              2.323

 Optimization completed.
    -- Stationary point found.
 Normal termination of Gaussian 16 at Sat Jun 18 13:13:36 2022.
