 Gaussian 16, Revision B.01,
 Gaussian 16:  ES64L-G16RevB.01 20-Dec-2017

 --------------------
 # b3lyp/gen opt freq
 --------------------

 ---------------------------
 acetaldehyde, B3LYP/pcseg-2
 ---------------------------
 Symbolic Z-matrix:
 Charge =  0 Multiplicity = 1

 SCF Done:  E(RB3LYP) =  -153.899687545     A.U. after   12 cycles
 SCF Done:  E(RB3LYP) =  -153.899688660     A.U. after    6 cycles
 Optimization completed.
    -- Stationary point found.
 Normal termination of Gaussian 16 at Tue Jun 14 21:01:04 2022.

 ------------------------------------------------------------------
 #N Geom=AllCheck Guess=TCheck SCRF=Check GenChk RB3LYP/ChkBas Freq
 ------------------------------------------------------------------

 Structure from the checkpoint file:  "/wrk/irikura/Gau-12785.chk"
 ---------------------------
 acetaldehyde, B3LYP/pcseg-2
 ---------------------------
 Charge =  0 Multiplicity = 1

                         Standard orientation:
 ---------------------------------------------------------------------
 Center     Atomic      Atomic             Coordinates (Angstroms)
 Number     Number       Type             X           Y           Z
 ---------------------------------------------------------------------
      1          6           0        0.000000    0.459654    0.000000
      2          6           0       -0.929365   -0.718665    0.000000
      3          8           0        1.201226    0.386631    0.000000
      4          1           0       -0.498079    1.451681    0.000000
      5          1           0       -0.373681   -1.653181    0.000000
      6          1           0       -1.580932   -0.668740    0.876244
      7          1           0       -1.580932   -0.668740   -0.876244
 ---------------------------------------------------------------------

 SCF Done:  E(RB3LYP) =  -153.899688660     A.U. after    1 cycles

 The electronic state is 1-A'.
 Alpha  occ. eigenvalues --  -19.12989 -10.27102 -10.18729  -1.05971  -0.76293
 Alpha  occ. eigenvalues --   -0.58930  -0.48914  -0.45529  -0.44780  -0.40859
 Alpha  occ. eigenvalues --   -0.37744  -0.26889
 Alpha virt. eigenvalues --   -0.03811   0.01347   0.04101   0.06212   0.08002
 Alpha virt. eigenvalues --    0.10718   0.13268   0.16964   0.18426   0.19328
 Alpha virt. eigenvalues --    0.23772   0.26797   0.30735   0.33214   0.33395

 Mulliken charges:
               1
     1  C    0.260967
     2  C   -0.014687
     3  O   -0.363646
     4  H   -0.010390
     5  H    0.052453
     6  H    0.037652
     7  H    0.037652
 Sum of Mulliken charges =   0.00000

 Dipole moment (field-independent basis, Debye):
    X=             -2.8628    Y=             -0.3339    Z=             -0.0000  Tot=              2.8822
 Quadrupole moment (field-independent basis, Debye-Ang):
   XX=            -21.4271   YY=            -18.0902   ZZ=            -18.0267
   XY=             -0.8095   XZ=              0.0000   YZ=              0.0000

  Exact polarizability:  35.080   1.071  29.371   0.000  -0.000  21.986
 Approx polarizability:  52.086  -0.601  36.180   0.000   0.000  30.292

                      1                      2                      3
                     A"                     A'                     A"
 Frequencies --    155.8586               510.8432               775.6294
 Red. masses --      1.2385                 2.5451                 1.1224
 Frc consts  --      0.0177                 0.3913                 0.3978
 IR Inten    --      1.1088                13.4478                 0.8776

                      4                      5                      6
                     A'                     A'                     A"
 Frequencies --    886.3499              1130.1843              1136.8318
 Red. masses --      2.1672                 2.0968                 1.7802
 Frc consts  --      1.0031                 1.5780                 1.3555
 IR Inten    --     10.2426                25.9957                 0.2423

                      7                      8                      9
                     A'                     A'                     A'
 Frequencies --   1379.5241              1425.2980              1459.7884
 Red. masses --      1.2534                 1.1946                 1.0607
 Frc consts  --      1.4054                 1.4299                 1.3318
 IR Inten    --     26.4481                 9.6680                22.8242

                     10                     11                     12
                     A"                     A'                     A'
 Frequencies --   1469.2309              1807.6251              2871.0944
 Red. masses --      1.0472                 9.2848                 1.0821
 Frc consts  --      1.3318                17.8746                 5.2556
 IR Inten    --     10.9553               197.8633               125.1109

                     13                     14                     15
                     A'                     A"                     A'
 Frequencies --   3025.8144              3078.5531              3140.0257
 Red. masses --      1.0369                 1.0980                 1.1022
 Frc consts  --      5.5935                 6.1311                 6.4031
 IR Inten    --      2.1096                 6.4509                 9.1505

 - Thermochemistry -
 -------------------
 Temperature   298.150 Kelvin.  Pressure   1.00000 Atm.
 Atom     1 has atomic number  6 and mass  12.00000

 Molecular mass:    44.02621 amu.
 Principal axes and moments of inertia in atomic units:
                           1         2         3
     Eigenvalues --    31.39990 177.35202 197.69859
           X            0.87463  -0.48480   0.00000
           Y            0.48480   0.87463   0.00000
           Z            0.00000  -0.00000   1.00000
 This molecule is an asymmetric top.
 Rotational symmetry number  1.
 Rotational temperatures (Kelvin)      2.75841     0.48837     0.43811
 Rotational constants (GHZ):          57.47602    10.17604     9.12875
 Zero-point vibrational energy     145063.1 (Joules/Mol)
                                   34.67091 (Kcal/Mol)
 Warning -- explicit consideration of   2 degrees of freedom as
           vibrations may cause significant error
 Vibrational temperatures:    224.25   734.99  1115.96  1275.26  1626.08
          (Kelvin)           1635.65  1984.83  2050.69  2100.31  2113.90
                             2600.77  4130.86  4353.47  4429.35  4517.80

 Zero-point correction=                           0.055252 (Hartree/Particle)
 Thermal correction to Energy=                    0.059147
 Thermal correction to Enthalpy=                  0.060092
 Thermal correction to Gibbs Free Energy=         0.030310
 Sum of electronic and zero-point Energies=           -153.844437
 Sum of electronic and thermal Energies=              -153.840541
 Sum of electronic and thermal Enthalpies=            -153.839597
 Sum of electronic and thermal Free Energies=         -153.869378

                     E (Thermal)             CV                S
                      KCal/Mol        Cal/Mol-Kelvin    Cal/Mol-Kelvin
 Total                   37.116             11.205             62.680
 Electronic               0.000              0.000              0.000
 Translational            0.889              2.981             37.273
 Rotational               0.889              2.981             21.626
 Vibrational             35.338              5.243              3.782
 Vibration     1          0.620              1.896              2.599
 Vibration     2          0.866              1.226              0.632

 Optimization completed.
    -- Stationary point found.
 Normal termination of Gaussian 16 at Tue Jun 14 21:02:08 2022.
