 Gaussian 16, Revision B.01,
 Gaussian 16:  ES64L-G16RevB.01 20-Dec-2017

 --------------------
 # b3lyp/gen opt freq
 --------------------

 ---------------------------
 pyruvic acid, B3LYP/pcseg-2
 ---------------------------
 Symbolic Z-matrix:
 Charge =  0 Multiplicity = 1

 SCF Done:  E(RB3LYP) =  -342.552781872     A.U. after   13 cycles
 SCF Done:  E(RB3LYP) =  -342.552906772     A.U. after   10 cycles
 SCF Done:  E(RB3LYP) =  -342.552910774     A.U. after    8 cycles
 Optimization completed.
    -- Stationary point found.
 Normal termination of Gaussian 16 at Tue Sep 12 10:45:37 2023.

 ------------------------------------------------------------------
 #N Geom=AllCheck Guess=TCheck SCRF=Check GenChk RB3LYP/ChkBas Freq
 ------------------------------------------------------------------

 Structure from the checkpoint file:  "/wrk/irikura/Gau-332851.chk"
 ---------------------------
 pyruvic acid, B3LYP/pcseg-2
 ---------------------------
 Charge =  0 Multiplicity = 1

                         Standard orientation:
 ---------------------------------------------------------------------
 Center     Atomic      Atomic             Coordinates (Angstroms)
 Number     Number       Type             X           Y           Z
 ---------------------------------------------------------------------
      1          6           0        0.033014   -0.818012    0.000000
      2          6           0        0.000000    0.733783    0.000000
      3          8           0       -0.955292   -1.495074    0.000000
      4          8           0        1.274824   -1.303527    0.000000
      5          1           0        1.879831   -0.540049    0.000000
      6          8           0        1.059517    1.318078    0.000000
      7          6           0       -1.342537    1.385442    0.000000
      8          1           0       -1.233507    2.465551    0.000000
      9          1           0       -1.910791    1.055702    0.871183
     10          1           0       -1.910791    1.055702   -0.871183
 ---------------------------------------------------------------------

 SCF Done:  E(RB3LYP) =  -342.552910774     A.U. after    1 cycles

 The electronic state is 1-A'.
 Alpha  occ. eigenvalues --  -19.19149 -19.16989 -19.14054 -10.32916 -10.30896
 Alpha  occ. eigenvalues --  -10.20355  -1.13870  -1.09404  -1.05421  -0.78922
 Alpha  occ. eigenvalues --   -0.67764  -0.62608  -0.54024  -0.50181  -0.49616
 Alpha  occ. eigenvalues --   -0.46830  -0.45373  -0.45060  -0.40651  -0.40409
 Alpha  occ. eigenvalues --   -0.35630  -0.35132  -0.28547
 Alpha virt. eigenvalues --   -0.10341   0.00491   0.03090   0.03244   0.06176
 Alpha virt. eigenvalues --    0.07313   0.09260   0.11613   0.15754   0.15986
 Alpha virt. eigenvalues --    0.16821   0.16936   0.18743   0.22248   0.23562

 Mulliken charges:
               1
     1  C    0.446850
     2  C    0.273744
     3  O   -0.385137
     4  O   -0.304270
     5  H    0.218968
     6  O   -0.394437
     7  C   -0.036959
     8  H    0.066921
     9  H    0.057160
    10  H    0.057160
 Sum of Mulliken charges =   0.00000

 Dipole moment (field-independent basis, Debye):
    X=             -0.4064    Y=              2.3870    Z=              0.0000  Tot=              2.4214
 Quadrupole moment (field-independent basis, Debye-Ang):
   XX=            -33.8204   YY=            -41.3578   ZZ=            -32.8525
   XY=             -5.3096   XZ=             -0.0000   YZ=              0.0000

  Exact polarizability:  54.749   1.451  48.250   0.000  -0.000  30.711
 Approx polarizability:  86.467  12.162  64.445  -0.000   0.000  44.968

                      1                      2                      3
                     A"                     A"                     A'
 Frequencies --     86.2329               114.2612               251.5122
 Red. masses --      2.3218                 1.4600                 4.1555
 Frc consts  --      0.0102                 0.0112                 0.1549
 IR Inten    --      7.4253                 1.0841                26.0078

                      4                      5                      6
                     A'                     A"                     A'
 Frequencies --    390.3868               396.1721               524.4455
 Red. masses --      4.7033                 4.3869                 6.3251
 Frc consts  --      0.4223                 0.4057                 1.0250
 IR Inten    --     10.5854                17.6779                 3.2938

                      7                      8                      9
                     A'                     A"                     A"
 Frequencies --    609.8944               702.9278               741.0199
 Red. masses --      4.3169                 1.5877                 1.6480
 Frc consts  --      0.9461                 0.4622                 0.5332
 IR Inten    --     17.7822                81.2397                22.5543

                     10                     11                     12
                     A'                     A'                     A"
 Frequencies --    765.5830               979.8686              1037.7001
 Red. masses --      6.6506                 2.0272                 1.9845
 Frc consts  --      2.2967                 1.1468                 1.2590
 IR Inten    --      8.7977                21.0597                 1.5132

                     13                     14                     15
                     A'                     A'                     A'
 Frequencies --   1155.0529              1241.5302              1375.6032
 Red. masses --      3.2155                 2.1016                 1.7199
 Frc consts  --      2.5275                 1.9086                 1.9175
 IR Inten    --     69.9744                84.9630               358.0713

                     16                     17                     18
                     A'                     A'                     A"
 Frequencies --   1400.0266              1454.6937              1456.9291
 Red. masses --      1.5582                 1.0618                 1.0471
 Frc consts  --      1.7994                 1.3239                 1.3095
 IR Inten    --      5.5506                14.9854                11.6323

                     19                     20                     21
                     A'                     A'                     A'
 Frequencies --   1777.6266              1839.2727              3047.9593
 Red. masses --     10.9324                10.2970                 1.0363
 Frc consts  --     20.3538                20.5236                 5.6723
 IR Inten    --    115.3803               259.3422                 0.5647

                     22                     23                     24
                     A"                     A'                     A'
 Frequencies --   3101.1230              3159.9465              3629.4388
 Red. masses --      1.0970                 1.1041                 1.0643
 Frc consts  --      6.2159                 6.4959                 8.2602
 IR Inten    --      0.3695                 4.6979               116.4215

 - Thermochemistry -
 -------------------
 Temperature   298.150 Kelvin.  Pressure   1.00000 Atm.
 Atom     1 has atomic number  6 and mass  12.00000

 Molecular mass:    88.01604 amu.
 Principal axes and moments of inertia in atomic units:
                           1         2         3
     Eigenvalues --   324.92039 504.70684 818.70123
           X           -0.24708   0.96899   0.00000
           Y            0.96899   0.24708   0.00000
           Z            0.00000   0.00000   1.00000
 This molecule is an asymmetric top.
 Rotational symmetry number  1.
 Rotational temperatures (Kelvin)      0.26657     0.17161     0.10579
 Rotational constants (GHZ):           5.55441     3.57582     2.20440
 Zero-point vibrational energy     186852.0 (Joules/Mol)
                                   44.65869 (Kcal/Mol)
 Warning -- explicit consideration of   7 degrees of freedom as
           vibrations may cause significant error
 Vibrational temperatures:    124.07   164.40   361.87   561.68   570.00
          (Kelvin)            754.56   877.50  1011.36  1066.16  1101.50
                             1409.81  1493.02  1661.86  1786.29  1979.19
                             2014.33  2092.98  2096.20  2557.61  2646.30
                             4385.33  4461.82  4546.46  5221.95

 Zero-point correction=                           0.071168 (Hartree/Particle)
 Thermal correction to Energy=                    0.077381
 Thermal correction to Enthalpy=                  0.078325
 Thermal correction to Gibbs Free Energy=         0.041007
 Sum of electronic and zero-point Energies=           -342.481743
 Sum of electronic and thermal Energies=              -342.475530
 Sum of electronic and thermal Enthalpies=            -342.474586
 Sum of electronic and thermal Free Energies=         -342.511904

                     E (Thermal)             CV                S
                      KCal/Mol        Cal/Mol-Kelvin    Cal/Mol-Kelvin
 Total                   48.557             20.678             78.543
 Electronic               0.000              0.000              0.000
 Translational            0.889              2.981             39.338
 Rotational               0.889              2.981             26.398
 Vibrational             46.780             14.716             12.807
 Vibration     1          0.601              1.959              3.744
 Vibration     2          0.607              1.938              3.195
 Vibration     3          0.663              1.760              1.720
 Vibration     4          0.758              1.491              0.999
 Vibration     5          0.763              1.478              0.977
 Vibration     6          0.879              1.196              0.600
 Vibration     7          0.969              1.011              0.433

 Optimization completed.
    -- Stationary point found.
 Normal termination of Gaussian 16 at Tue Sep 12 10:47:31 2023.
