 Gaussian 16, Revision B.01,
 Gaussian 16:  ES64L-G16RevB.01 20-Dec-2017

 --------------------
 # b3lyp/gen opt freq
 --------------------

 ---------------------------
 methylketene, B3LYP/pcseg-2
 ---------------------------
 Symbolic Z-matrix:
 Charge =  0 Multiplicity = 1

 SCF Done:  E(RB3LYP) =  -191.997646515     A.U. after   13 cycles
 SCF Done:  E(RB3LYP) =  -191.997828392     A.U. after   11 cycles
 SCF Done:  E(RB3LYP) =  -191.997878392     A.U. after   10 cycles
 SCF Done:  E(RB3LYP) =  -191.997949908     A.U. after   10 cycles
 SCF Done:  E(RB3LYP) =  -191.997988249     A.U. after   10 cycles
 SCF Done:  E(RB3LYP) =  -191.997999938     A.U. after   10 cycles
 SCF Done:  E(RB3LYP) =  -191.998000943     A.U. after    9 cycles
 SCF Done:  E(RB3LYP) =  -191.998005335     A.U. after    9 cycles
 Optimization completed.
    -- Stationary point found.
 Normal termination of Gaussian 16 at Thu Jun 16 17:10:22 2022.

 ------------------------------------------------------------------
 #N Geom=AllCheck Guess=TCheck SCRF=Check GenChk RB3LYP/ChkBas Freq
 ------------------------------------------------------------------

 Structure from the checkpoint file:  "/wrk/irikura/Gau-10334.chk"
 ---------------------------
 methylketene, B3LYP/pcseg-2
 ---------------------------
 Charge =  0 Multiplicity = 1

                         Standard orientation:
 ---------------------------------------------------------------------
 Center     Atomic      Atomic             Coordinates (Angstroms)
 Number     Number       Type             X           Y           Z
 ---------------------------------------------------------------------
      1          6           0       -0.764753    0.126812    0.000035
      2          6           0        0.466681    0.568364   -0.000070
      3          6           0        1.680937   -0.329965    0.000003
      4          8           0       -1.859020   -0.268603   -0.000010
      5          1           0        0.581034    1.644305    0.000086
      6          1           0        1.396695   -1.380829    0.000547
      7          1           0        2.298511   -0.153388   -0.882204
      8          1           0        2.298732   -0.152533    0.881844
 ---------------------------------------------------------------------

 SCF Done:  E(RB3LYP) =  -191.998005335     A.U. after    1 cycles

 The electronic state is 1-A.
 Alpha  occ. eigenvalues --  -19.18433 -10.28770 -10.18938 -10.18467  -1.11607
 Alpha  occ. eigenvalues --   -0.80748  -0.69268  -0.53570  -0.50189  -0.46312
 Alpha  occ. eigenvalues --   -0.45833  -0.42119  -0.40811  -0.38953  -0.23662
 Alpha virt. eigenvalues --   -0.04327   0.01791   0.04102   0.05683   0.05898
 Alpha virt. eigenvalues --    0.07212   0.10552   0.12636   0.15141   0.16091
 Alpha virt. eigenvalues --    0.19237   0.21304   0.22838   0.23931   0.27160

 Mulliken charges:
               1
     1  C    0.338057
     2  C   -0.189589
     3  C   -0.045078
     4  O   -0.287884
     5  H    0.073179
     6  H    0.028471
     7  H    0.041434
     8  H    0.041409
 Sum of Mulliken charges =  -0.00000

 Dipole moment (field-independent basis, Debye):
    X=              1.8844    Y=              0.4411    Z=              0.0003  Tot=              1.9353
 Quadrupole moment (field-independent basis, Debye-Ang):
   XX=            -26.5671   YY=            -22.2963   ZZ=            -25.1859
   XY=             -0.9365   XZ=              0.0001   YZ=              0.0004

  Exact polarizability:  55.598   4.497  31.833  -0.002   0.000  28.084
 Approx polarizability:  86.500  14.011  45.623  -0.004  -0.000  38.428

                      1                      2                      3
                      A                      A                      A
 Frequencies --    144.2188               210.8150               514.8080
 Red. masses --      1.1634                 3.9798                 1.9178
 Frc consts  --      0.0143                 0.1042                 0.2995
 IR Inten    --      0.0270                 2.0866                12.7600

                      4                      5                      6
                      A                      A                      A
 Frequencies --    557.6239               652.1555               900.7366
 Red. masses --      2.5889                 4.5997                 2.3144
 Frc consts  --      0.4743                 1.1526                 1.1063
 IR Inten    --     52.2067                 5.4601                 3.4130

                      7                      8                      9
                      A                      A                      A
 Frequencies --   1058.6852              1082.8913              1154.7168
 Red. masses --      1.3124                 1.9145                 1.4958
 Frc consts  --      0.8667                 1.3227                 1.1751
 IR Inten    --      0.4577                 8.7887                 0.6922

                     10                     11                     12
                      A                      A                      A
 Frequencies --   1411.4042              1421.4050              1484.1538
 Red. masses --      2.6353                 1.2349                 1.0426
 Frc consts  --      3.0930                 1.4700                 1.3531
 IR Inten    --      0.9231                14.8283                 6.4375

                     13                     14                     15
                      A                      A                      A
 Frequencies --   1511.6548              2199.7086              3027.7681
 Red. masses --      1.1007                12.2387                 1.0357
 Frc consts  --      1.4819                34.8911                 5.5942
 IR Inten    --      5.4365               719.0644                39.3346

                     16                     17                     18
                      A                      A                      A
 Frequencies --   3074.6514              3111.0929              3179.8997
 Red. masses --      1.1029                 1.0997                 1.0855
 Frc consts  --      6.1429                 6.2714                 6.4669
 IR Inten    --     18.1836                15.7424                 7.0459

 - Thermochemistry -
 -------------------
 Temperature   298.150 Kelvin.  Pressure   1.00000 Atm.
 Atom     1 has atomic number  6 and mass  12.00000

 Molecular mass:    56.02621 amu.
 Principal axes and moments of inertia in atomic units:
                           1         2         3
     Eigenvalues --    45.58068 402.14049 436.52154
           X            0.99986  -0.01669   0.00000
           Y            0.01669   0.99986   0.00002
           Z           -0.00000  -0.00002   1.00000
 This molecule is an asymmetric top.
 Rotational symmetry number  1.
 Rotational temperatures (Kelvin)      1.90023     0.21538     0.19842
 Rotational constants (GHZ):          39.59444     4.48784     4.13437
 Zero-point vibrational energy     159691.8 (Joules/Mol)
                                   38.16726 (Kcal/Mol)
 Warning -- explicit consideration of   4 degrees of freedom as
           vibrations may cause significant error
 Vibrational temperatures:    207.50   303.32   740.69   802.30   938.31
          (Kelvin)           1295.96  1523.21  1558.04  1661.38  2030.70
                             2045.08  2135.37  2174.93  3164.89  4356.28
                             4423.74  4476.17  4575.17

 Zero-point correction=                           0.060823 (Hartree/Particle)
 Thermal correction to Energy=                    0.065539
 Thermal correction to Enthalpy=                  0.066483
 Thermal correction to Gibbs Free Energy=         0.034042
 Sum of electronic and zero-point Energies=           -191.937182
 Sum of electronic and thermal Energies=              -191.932466
 Sum of electronic and thermal Enthalpies=            -191.931522
 Sum of electronic and thermal Free Energies=         -191.963963

                     E (Thermal)             CV                S
                      KCal/Mol        Cal/Mol-Kelvin    Cal/Mol-Kelvin
 Total                   41.126             14.663             68.278
 Electronic               0.000              0.000              0.000
 Translational            0.889              2.981             37.991
 Rotational               0.889              2.981             23.596
 Vibrational             39.349              8.702              6.690
 Vibration     1          0.616              1.909              2.747
 Vibration     2          0.643              1.824              2.037
 Vibration     3          0.870              1.217              0.622
 Vibration     4          0.913              1.123              0.529

 Optimization completed.
    -- Stationary point found.
 Normal termination of Gaussian 16 at Thu Jun 16 17:11:20 2022.
