 Gaussian 16, Revision B.01,
 Gaussian 16:  ES64L-G16RevB.01 20-Dec-2017

 --------------------
 # b3lyp/gen opt freq
 --------------------

 ---------------------------
 acetonitrile, B3LYP/pcseg-2
 ---------------------------
 Symbolic Z-matrix:
 Charge =  0 Multiplicity = 1

 SCF Done:  E(RB3LYP) =  -132.811066707     A.U. after   12 cycles
 SCF Done:  E(RB3LYP) =  -132.811099655     A.U. after    8 cycles
 Optimization completed.
    -- Stationary point found.
 Normal termination of Gaussian 16 at Thu Feb 24 15:44:04 2022.

 ------------------------------------------------------------------
 #N Geom=AllCheck Guess=TCheck SCRF=Check GenChk RB3LYP/ChkBas Freq
 ------------------------------------------------------------------

 Structure from the checkpoint file:  "/wrk/irikura/Gau-21788.chk"
 ---------------------------
 acetonitrile, B3LYP/pcseg-2
 ---------------------------
 Charge =  0 Multiplicity = 1

                         Standard orientation:
 ---------------------------------------------------------------------
 Center     Atomic      Atomic             Coordinates (Angstroms)
 Number     Number       Type             X           Y           Z
 ---------------------------------------------------------------------
      1          6           0        0.000000    0.000000   -1.174026
      2          6           0        0.000000    0.000000    0.280660
      3          7           0        0.000000    0.000000    1.429968
      4          1           0        0.000000    1.022382   -1.549861
      5          1           0        0.885409   -0.511191   -1.549861
      6          1           0       -0.885409   -0.511191   -1.549861
 ---------------------------------------------------------------------

 SCF Done:  E(RB3LYP) =  -132.811099655     A.U. after    1 cycles

 The electronic state is 1-A1.
 Alpha  occ. eigenvalues --  -14.31518 -10.22844 -10.21561  -0.91509  -0.78533
 Alpha  occ. eigenvalues --   -0.52455  -0.47347  -0.47347  -0.37000  -0.34025
 Alpha  occ. eigenvalues --   -0.34025
 Alpha virt. eigenvalues --   -0.00253   0.01990   0.01990   0.06928   0.06928
 Alpha virt. eigenvalues --    0.08463   0.12197   0.17001   0.17001   0.20596
 Alpha virt. eigenvalues --    0.20596   0.23189   0.30510   0.31966   0.31966

 Mulliken charges:
               1
     1  C   -0.067273
     2  C    0.024634
     3  N   -0.168023
     4  H    0.070221
     5  H    0.070221
     6  H    0.070221
 Sum of Mulliken charges =  -0.00000

 Dipole moment (field-independent basis, Debye):
    X=              0.0000    Y=             -0.0000    Z=             -4.0428  Tot=              4.0428
 Quadrupole moment (field-independent basis, Debye-Ang):
   XX=            -17.7244   YY=            -17.7244   ZZ=            -21.0699
   XY=             -0.0000   XZ=             -0.0000   YZ=              0.0000

  Exact polarizability:  21.602  -0.000  21.602   0.000   0.000  39.105
 Approx polarizability:  29.214  -0.000  29.214   0.000   0.000  60.682

                      1                      2                      3
                      E                      E                     A1
 Frequencies --    383.5704               383.5704               929.4995
 Red. masses --      3.8039                 3.8039                 4.6133
 Frc consts  --      0.3297                 0.3297                 2.3483
 IR Inten    --      0.4044                 0.4044                 1.2530

                      4                      5                      6
                      E                      E                     A1
 Frequencies --   1062.4585              1062.4587              1413.7462
 Red. masses --      1.4469                 1.4469                 1.2310
 Frc consts  --      0.9623                 0.9623                 1.4496
 IR Inten    --      1.8794                 1.8794                 1.9220

                      7                      8                      9
                      E                      E                     A1
 Frequencies --   1474.4157              1474.4158              2361.9524
 Red. masses --      1.0382                 1.0382                12.5588
 Frc consts  --      1.3298                 1.3298                41.2799
 IR Inten    --     10.9949                10.9953                11.0588

                     10                     11                     12
                     A1                      E                      E
 Frequencies --   3051.4012              3120.6899              3120.6900
 Red. masses --      1.0336                 1.1020                 1.1020
 Frc consts  --      5.6700                 6.3230                 6.3230
 IR Inten    --      2.9209                 0.8354                 0.8354

 - Thermochemistry -
 -------------------
 Temperature   298.150 Kelvin.  Pressure   1.00000 Atm.
 Atom     1 has atomic number  6 and mass  12.00000

 Molecular mass:    41.02655 amu.
 Principal axes and moments of inertia in atomic units:
                           1         2         3
     Eigenvalues --    11.28575 194.41571 194.41571
           X            0.00000   0.96695   0.25496
           Y            0.00000  -0.25496   0.96695
           Z            1.00000  -0.00000  -0.00000
 This molecule is a prolate symmetric top.
 Rotational symmetry number  3.
 Rotational temperatures (Kelvin)      7.67463     0.44551     0.44551
 Rotational constants (GHZ):         159.91334     9.28290     9.28290
 Zero-point vibrational energy     118662.8 (Joules/Mol)
                                   28.36109 (Kcal/Mol)
 Warning -- explicit consideration of   2 degrees of freedom as
           vibrations may cause significant error
 Vibrational temperatures:    551.87   551.87  1337.34  1528.64  1528.64
          (Kelvin)           2034.07  2121.36  2121.36  3398.32  4390.29
                             4489.98  4489.98

 Zero-point correction=                           0.045196 (Hartree/Particle)
 Thermal correction to Energy=                    0.048804
 Thermal correction to Enthalpy=                  0.049749
 Thermal correction to Gibbs Free Energy=         0.022226
 Sum of electronic and zero-point Energies=           -132.765903
 Sum of electronic and thermal Energies=              -132.762295
 Sum of electronic and thermal Enthalpies=            -132.761351
 Sum of electronic and thermal Free Energies=         -132.788873

                     E (Thermal)             CV                S
                      KCal/Mol        Cal/Mol-Kelvin    Cal/Mol-Kelvin
 Total                   30.625             10.329             57.926
 Electronic               0.000              0.000              0.000
 Translational            0.889              2.981             37.062
 Rotational               0.889              2.981             18.500
 Vibrational             28.848              4.367              2.363
 Vibration     1          0.753              1.505              1.025
 Vibration     2          0.753              1.505              1.025

 Optimization completed.
    -- Stationary point found.
 Normal termination of Gaussian 16 at Thu Feb 24 15:44:41 2022.
