 Gaussian 16, Revision B.01,
 Gaussian 16:  ES64L-G16RevB.01 20-Dec-2017

 --------------------
 # b3lyp/gen opt freq
 --------------------

 ---------------------------
 acetone enol, B3LYP/pcseg-2
 ---------------------------
 Symbolic Z-matrix:
 Charge =  0 Multiplicity = 1

 SCF Done:  E(RB3LYP) =  -193.222074642     A.U. after   12 cycles
 SCF Done:  E(RB3LYP) =  -193.222166955     A.U. after    8 cycles
 SCF Done:  E(RB3LYP) =  -193.222170406     A.U. after    7 cycles
 SCF Done:  E(RB3LYP) =  -193.222170838     A.U. after    6 cycles
 Optimization completed.
    -- Stationary point found.
 Normal termination of Gaussian 16 at Sat Jun 18 12:31:58 2022.

 ------------------------------------------------------------------
 #N Geom=AllCheck Guess=TCheck SCRF=Check GenChk RB3LYP/ChkBas Freq
 ------------------------------------------------------------------

 Structure from the checkpoint file:  "/wrk/irikura/Gau-8441.chk"
 ---------------------------
 acetone enol, B3LYP/pcseg-2
 ---------------------------
 Charge =  0 Multiplicity = 1

                         Standard orientation:
 ---------------------------------------------------------------------
 Center     Atomic      Atomic             Coordinates (Angstroms)
 Number     Number       Type             X           Y           Z
 ---------------------------------------------------------------------
      1          8           0       -1.301576   -0.329361    0.000000
      2          6           0        0.000000    0.096997    0.000000
      3          6           0        0.938019   -1.064857    0.000000
      4          6           0        0.357593    1.380241    0.000000
      5          1           0        1.972125   -0.730546    0.000000
      6          1           0        0.766307   -1.689149    0.878710
      7          1           0        0.766307   -1.689149   -0.878710
      8          1           0       -0.374339    2.177796    0.000000
      9          1           0        1.398876    1.659893    0.000000
     10          1           0       -1.890332    0.431759    0.000000
 ---------------------------------------------------------------------

 SCF Done:  E(RB3LYP) =  -193.222170838     A.U. after    1 cycles

 The electronic state is 1-A'.
 Alpha  occ. eigenvalues --  -19.15439 -10.23745 -10.17166 -10.15166  -1.06303
 Alpha  occ. eigenvalues --   -0.78250  -0.69990  -0.59792  -0.49816  -0.46911
 Alpha  occ. eigenvalues --   -0.43995  -0.40359  -0.37815  -0.37105  -0.36940
 Alpha  occ. eigenvalues --   -0.23682
 Alpha virt. eigenvalues --    0.00538   0.01803   0.03695   0.05790   0.06732
 Alpha virt. eigenvalues --    0.09127   0.09713   0.12615   0.16762   0.17005
 Alpha virt. eigenvalues --    0.18874   0.21133   0.21438   0.25075   0.26080

 Mulliken charges:
               1
     1  O   -0.368713
     2  C    0.268254
     3  C   -0.042036
     4  C   -0.224651
     5  H    0.030665
     6  H    0.037343
     7  H    0.037343
     8  H    0.031824
     9  H    0.041407
    10  H    0.188564
 Sum of Mulliken charges =   0.00000

 Dipole moment (field-independent basis, Debye):
    X=             -0.0204    Y=              0.5463    Z=             -0.0000  Tot=              0.5467
 Quadrupole moment (field-independent basis, Debye-Ang):
   XX=            -22.5715   YY=            -25.0938   ZZ=            -27.4027
   XY=             -3.2857   XZ=             -0.0000   YZ=             -0.0000

  Exact polarizability:  42.125   1.653  54.339   0.000   0.000  31.496
 Approx polarizability:  56.724   7.196  77.757   0.000  -0.000  44.142

                      1                      2                      3
                     A"                     A'                     A"
 Frequencies --    185.3352               412.3977               434.1937
 Red. masses --      1.0672                 2.3034                 1.0730
 Frc consts  --      0.0216                 0.2308                 0.1192
 IR Inten    --      1.3450                 1.5284               104.1206

                      4                      5                      6
                     A'                     A"                     A"
 Frequencies --    483.0058               507.0287               725.2828
 Red. masses --      2.5045                 2.0621                 1.1897
 Frc consts  --      0.3443                 0.3123                 0.3687
 IR Inten    --     18.1003                 1.4783                 0.4963

                      7                      8                      9
                     A"                     A'                     A'
 Frequencies --    821.2565               861.2811               981.5811
 Red. masses --      1.3738                 3.4577                 1.6570
 Frc consts  --      0.5459                 1.5112                 0.9406
 IR Inten    --     75.4080                 6.0421                20.5774

                     10                     11                     12
                     A'                     A"                     A'
 Frequencies --   1021.9966              1072.6972              1201.0950
 Red. masses --      1.5191                 1.5189                 1.5049
 Frc consts  --      0.9348                 1.0298                 1.2792
 IR Inten    --     35.3576                 0.1260               143.7510

                     13                     14                     15
                     A'                     A'                     A'
 Frequencies --   1356.2987              1414.2336              1454.0393
 Red. masses --      2.0294                 1.2912                 1.2573
 Frc consts  --      2.1995                 1.5215                 1.5661
 IR Inten    --     21.0338                25.6491                 3.8462

                     16                     17                     18
                     A"                     A'                     A'
 Frequencies --   1472.8955              1490.9366              1712.2997
 Red. masses --      1.0428                 1.0625                 5.2426
 Frc consts  --      1.3328                 1.3916                 9.0564
 IR Inten    --      8.3258                 8.8160               160.1484

                     19                     20                     21
                     A'                     A"                     A'
 Frequencies --   3036.6911              3084.7784              3135.9736
 Red. masses --      1.0378                 1.1000                 1.0997
 Frc consts  --      5.6383                 6.1670                 6.3720
 IR Inten    --     17.9675                11.3551                13.6236

                     22                     23                     24
                     A'                     A'                     A'
 Frequencies --   3149.1502              3244.8025              3810.0907
 Red. masses --      1.0636                 1.1126                 1.0655
 Frc consts  --      6.2144                 6.9017                 9.1130
 IR Inten    --      4.2572                 8.1584                32.9341

 - Thermochemistry -
 -------------------
 Temperature   298.150 Kelvin.  Pressure   1.00000 Atm.
 Atom     1 has atomic number  8 and mass  15.99491

 Molecular mass:    58.04186 amu.
 Principal axes and moments of inertia in atomic units:
                           1         2         3
     Eigenvalues --   177.90793 198.31178 365.10409
           X           -0.53373   0.84566   0.00000
           Y            0.84566   0.53373   0.00000
           Z           -0.00000   0.00000   1.00000
 This molecule is an asymmetric top.
 Rotational symmetry number  1.
 Rotational temperatures (Kelvin)      0.48685     0.43676     0.23723
 Rotational constants (GHZ):          10.14424     9.10052     4.94309
 Zero-point vibrational energy     221723.9 (Joules/Mol)
                                   52.99328 (Kcal/Mol)
 Warning -- explicit consideration of   5 degrees of freedom as
           vibrations may cause significant error
 Vibrational temperatures:    266.66   593.35   624.71   694.94   729.50
          (Kelvin)           1043.52  1181.60  1239.19  1412.28  1470.43
                             1543.37  1728.11  1951.41  2034.77  2092.04
                             2119.17  2145.13  2463.62  4369.12  4438.31
                             4511.97  4530.92  4668.55  5481.87

 Zero-point correction=                           0.084450 (Hartree/Particle)
 Thermal correction to Energy=                    0.089288
 Thermal correction to Enthalpy=                  0.090232
 Thermal correction to Gibbs Free Energy=         0.057658
 Sum of electronic and zero-point Energies=           -193.137721
 Sum of electronic and thermal Energies=              -193.132883
 Sum of electronic and thermal Enthalpies=            -193.131939
 Sum of electronic and thermal Free Energies=         -193.164512

                     E (Thermal)             CV                S
                      KCal/Mol        Cal/Mol-Kelvin    Cal/Mol-Kelvin
 Total                   56.029             16.902             68.557
 Electronic               0.000              0.000              0.000
 Translational            0.889              2.981             38.096
 Rotational               0.889              2.981             24.069
 Vibrational             54.252             10.941              6.391
 Vibration     1          0.631              1.860              2.274
 Vibration     2          0.776              1.443              0.918
 Vibration     3          0.795              1.396              0.845
 Vibration     4          0.839              1.288              0.702
 Vibration     5          0.862              1.234              0.641

 Optimization completed.
    -- Stationary point found.
 Normal termination of Gaussian 16 at Sat Jun 18 12:33:07 2022.
