 Gaussian 16, Revision B.01,
 Gaussian 16:  ES64L-G16RevB.01 20-Dec-2017

 --------------------
 # b3lyp/gen opt freq
 --------------------

 --------------------
 CH3Cl, B3LYP/pcseg-2
 --------------------
 Symbolic Z-matrix:
 Charge =  0 Multiplicity = 1

 SCF Done:  E(RB3LYP) =  -500.096619809     A.U. after   11 cycles
 SCF Done:  E(RB3LYP) =  -500.152840973     A.U. after   10 cycles
 SCF Done:  E(RB3LYP) =  -500.164891204     A.U. after   10 cycles
 SCF Done:  E(RB3LYP) =  -500.167733219     A.U. after   10 cycles
 SCF Done:  E(RB3LYP) =  -500.168804089     A.U. after    9 cycles
 SCF Done:  E(RB3LYP) =  -500.168942918     A.U. after    8 cycles
 SCF Done:  E(RB3LYP) =  -500.168953568     A.U. after    7 cycles
 Optimization completed.
    -- Stationary point found.
 Normal termination of Gaussian 16 at Wed Feb  2 17:44:15 2022.

 ------------------------------------------------------------------
 #N Geom=AllCheck Guess=TCheck SCRF=Check GenChk RB3LYP/ChkBas Freq
 ------------------------------------------------------------------

 Structure from the checkpoint file:  "/wrk/irikura/Gau-15226.chk"
 --------------------
 CH3Cl, B3LYP/pcseg-2
 --------------------
 Charge =  0 Multiplicity = 1

                         Standard orientation:
 ---------------------------------------------------------------------
 Center     Atomic      Atomic             Coordinates (Angstroms)
 Number     Number       Type             X           Y           Z
 ---------------------------------------------------------------------
      1          6           0        0.000000    0.000000   -1.135788
      2         17           0        0.000000    0.000000    0.661350
      3          1           0        0.000000    1.029754   -1.476076
      4          1           0        0.891793   -0.514877   -1.476076
      5          1           0       -0.891793   -0.514877   -1.476076
 ---------------------------------------------------------------------

 SCF Done:  E(RB3LYP) =  -500.168953568     A.U. after    1 cycles

 The electronic state is 1-A1.
 Alpha  occ. eigenvalues -- -101.50063 -10.23086  -9.44583  -7.20757  -7.19848
 Alpha  occ. eigenvalues --   -7.19848  -0.85207  -0.68275  -0.45600  -0.45600
 Alpha  occ. eigenvalues --   -0.41560  -0.30189  -0.30189
 Alpha virt. eigenvalues --   -0.00064   0.03326   0.06797   0.06797   0.14016
 Alpha virt. eigenvalues --    0.16519   0.16519   0.26596   0.32083   0.32083
 Alpha virt. eigenvalues --    0.32672   0.34956   0.34956   0.41410   0.49265

 Mulliken charges:
               1
     1  C   -0.008548
     2  Cl  -0.173948
     3  H    0.060832
     4  H    0.060832
     5  H    0.060832
 Sum of Mulliken charges =  -0.00000

 Dipole moment (field-independent basis, Debye):
    X=             -0.0000    Y=             -0.0000    Z=             -2.0157  Tot=              2.0157
 Quadrupole moment (field-independent basis, Debye-Ang):
   XX=            -19.9913   YY=            -19.9913   ZZ=            -18.3016
   XY=              0.0000   XZ=              0.0000   YZ=              0.0000

  Exact polarizability:  20.078  -0.000  20.079   0.000   0.000  31.874
 Approx polarizability:  27.375  -0.000  27.375   0.000  -0.000  44.381

                      1                      2                      3
                     A1                      E                      E
 Frequencies --    713.1037              1025.1947              1025.1948
 Red. masses --      7.4059                 1.1669                 1.1669
 Frc consts  --      2.2189                 0.7226                 0.7226
 IR Inten    --     28.0633                 2.4448                 2.4448

                      4                      5                      6
                     A1                      E                      E
 Frequencies --   1380.1170              1482.0599              1482.0599
 Red. masses --      1.1275                 1.0563                 1.0563
 Frc consts  --      1.2653                 1.3670                 1.3670
 IR Inten    --     15.4004                 5.6356                 5.6360

                      7                      8                      9
                     A1                      E                      E
 Frequencies --   3075.3472              3171.7363              3171.7364
 Red. masses --      1.0262                 1.1089                 1.1089
 Frc consts  --      5.7186                 6.5729                 6.5729
 IR Inten    --     24.0694                 5.2659                 5.2656

 - Thermochemistry -
 -------------------
 Temperature   298.150 Kelvin.  Pressure   1.00000 Atm.
 Atom     1 has atomic number  6 and mass  12.00000

 Molecular mass:    49.99233 amu.
 Principal axes and moments of inertia in atomic units:
                           1         2         3
     Eigenvalues --    11.44910 137.33825 137.33825
           X            0.00000   0.31623   0.94868
           Y            0.00000   0.94868  -0.31623
           Z            1.00000  -0.00000  -0.00000
 This molecule is a prolate symmetric top.
 Rotational symmetry number  3.
 Rotational temperatures (Kelvin)      7.56513     0.63066     0.63066
 Rotational constants (GHZ):         157.63169    13.14085    13.14085
 Zero-point vibrational energy      98850.7 (Joules/Mol)
                                   23.62589 (Kcal/Mol)
 Vibrational temperatures:   1026.00  1475.03  1475.03  1985.68  2132.35
          (Kelvin)           2132.35  4424.74  4563.42  4563.42

 Zero-point correction=                           0.037650 (Hartree/Particle)
 Thermal correction to Energy=                    0.040676
 Thermal correction to Enthalpy=                  0.041620
 Thermal correction to Gibbs Free Energy=         0.015022
 Sum of electronic and zero-point Energies=           -500.131303
 Sum of electronic and thermal Energies=              -500.128278
 Sum of electronic and thermal Enthalpies=            -500.127334
 Sum of electronic and thermal Free Energies=         -500.153932

                     E (Thermal)             CV                S
                      KCal/Mol        Cal/Mol-Kelvin    Cal/Mol-Kelvin
 Total                   25.524              7.740             55.980
 Electronic               0.000              0.000              0.000
 Translational            0.889              2.981             37.651
 Rotational               0.889              2.981             17.824
 Vibrational             23.747              1.778              0.505

 Optimization completed.
    -- Stationary point found.
 Normal termination of Gaussian 16 at Wed Feb  2 17:45:13 2022.
