 Gaussian 16, Revision B.01,

 ---------------------------------------
 # b3lyp/gen opt freq CPHF(Grid=OneStep)
 ---------------------------------------

 ---------------------------
 acetone enol, B3LYP/pcseg-2
 ---------------------------
 Symbolic Z-matrix:
 Charge =  0 Multiplicity = 1

 SCF Done:  E(RB3LYP) =  -193.222170838     A.U. after   12 cycles
 Optimization completed.
    -- Stationary point found.
 Normal termination of Gaussian 16 at Sat Sep 30 01:24:14 2023.

 ------------------------------------------------------------------
 #N Geom=AllCheck Guess=TCheck SCRF=Check GenChk RB3LYP/ChkBas Freq
 ------------------------------------------------------------------

 Structure from the checkpoint file:  "ch3cohch2.chk"
 ---------------------------
 acetone enol, B3LYP/pcseg-2
 ---------------------------
 Charge =  0 Multiplicity = 1

 SCF Done:  E(RB3LYP) =  -193.222170838     A.U. after    1 cycles

  Exact polarizability:  42.124   1.653  54.339  -0.000  -0.000  31.498
 Approx polarizability:  56.724   7.196  77.757  -0.000   0.000  44.142

                      1                      2                      3
                     A"                     A'                     A"
 Frequencies --    185.3352               412.3977               434.1788
 Red. masses --      1.0672                 2.3034                 1.0730
 Frc consts  --      0.0216                 0.2308                 0.1192
 IR Inten    --      1.3451                 1.5282               104.1211

                      4                      5                      6
                     A'                     A"                     A"
 Frequencies --    483.0050               507.0297               725.2842
 Red. masses --      2.5045                 2.0621                 1.1897
 Frc consts  --      0.3443                 0.3123                 0.3687
 IR Inten    --     18.0996                 1.4783                 0.4954

                      7                      8                      9
                     A"                     A'                     A'
 Frequencies --    821.2580               861.2818               981.5842
 Red. masses --      1.3738                 3.4577                 1.6570
 Frc consts  --      0.5459                 1.5112                 0.9406
 IR Inten    --     75.4039                 6.0425                20.5819

                     10                     11                     12
                     A'                     A"                     A'
 Frequencies --   1022.0003              1072.6967              1201.1030
 Red. masses --      1.5191                 1.5189                 1.5050
 Frc consts  --      0.9348                 1.0298                 1.2792
 IR Inten    --     35.3575                 0.1259               143.7515

                     13                     14                     15
                     A'                     A'                     A'
 Frequencies --   1356.3020              1414.2352              1454.0421
 Red. masses --      2.0293                 1.2912                 1.2572
 Frc consts  --      2.1994                 1.5216                 1.5661
 IR Inten    --     21.0306                25.6465                 3.8491

                     16                     17                     18
                     A"                     A'                     A'
 Frequencies --   1472.8940              1490.9351              1712.2867
 Red. masses --      1.0428                 1.0625                 5.2426
 Frc consts  --      1.3328                 1.3916                 9.0562
 IR Inten    --      8.3251                 8.8161               160.1327

                     19                     20                     21
                     A'                     A"                     A'
 Frequencies --   3036.6909              3084.7765              3135.9875
 Red. masses --      1.0378                 1.1000                 1.0997
 Frc consts  --      5.6383                 6.1670                 6.3720
 IR Inten    --     17.9665                11.3538                13.6203

                     22                     23                     24
                     A'                     A'                     A'
 Frequencies --   3149.1532              3244.8142              3810.0956
 Red. masses --      1.0636                 1.1126                 1.0655
 Frc consts  --      6.2144                 6.9017                 9.1130
 IR Inten    --      4.2592                 8.1534                32.9363

 - Thermochemistry -
 -------------------
 Temperature   298.150 Kelvin.  Pressure   1.00000 Atm.
 Atom     1 has atomic number  8 and mass  15.99491

 Molecular mass:    58.04186 amu.
 Principal axes and moments of inertia in atomic units:
                           1         2         3
     Eigenvalues --   177.90795 198.31168 365.10400
           X           -0.53372   0.84566   0.00000
           Y            0.84566   0.53372   0.00000
           Z            0.00000   0.00000   1.00000
 This molecule is an asymmetric top.
 Rotational symmetry number  1.
 Rotational temperatures (Kelvin)      0.48685     0.43676     0.23723
 Rotational constants (GHZ):          10.14424     9.10053     4.94309
 Zero-point vibrational energy     221724.1 (Joules/Mol)
                                   52.99332 (Kcal/Mol)
 Warning -- explicit consideration of   5 degrees of freedom as
           vibrations may cause significant error
 Vibrational temperatures:    266.66   593.35   624.69   694.94   729.50
          (Kelvin)           1043.52  1181.61  1239.19  1412.28  1470.43
                             1543.37  1728.12  1951.42  2034.77  2092.04
                             2119.17  2145.12  2463.60  4369.12  4438.31
                             4511.99  4530.93  4668.56  5481.88

 Zero-point correction=                           0.084450 (Hartree/Particle)
 Thermal correction to Energy=                    0.089288
 Thermal correction to Enthalpy=                  0.090232
 Thermal correction to Gibbs Free Energy=         0.057658
 Sum of electronic and zero-point Energies=           -193.137721
 Sum of electronic and thermal Energies=              -193.132883
 Sum of electronic and thermal Enthalpies=            -193.131939
 Sum of electronic and thermal Free Energies=         -193.164512

                     E (Thermal)             CV                S
                      KCal/Mol        Cal/Mol-Kelvin    Cal/Mol-Kelvin
 Total                   56.029             16.902             68.557
 Electronic               0.000              0.000              0.000
 Translational            0.889              2.981             38.096
 Rotational               0.889              2.981             24.069
 Vibrational             54.252             10.941              6.391
 Vibration     1          0.631              1.860              2.274
 Vibration     2          0.776              1.443              0.918
 Vibration     3          0.795              1.396              0.845
 Vibration     4          0.839              1.288              0.702
 Vibration     5          0.862              1.234              0.641

 Optimization completed.
    -- Stationary point found.
 Normal termination of Gaussian 16 at Sat Sep 30 01:28:26 2023.
 Gaussian 16:  ES64L-G16RevB.01 20-Dec-2017

 ---------------------------------
 # rohf/gen geom=check guess=check
 ---------------------------------

 ------------------------------
 acetone enol, ROHF/cc-pVTZ-F12
 ------------------------------
 Structure from the checkpoint file:  "ch3cohch2.chk"
 Charge =  0 Multiplicity = 1

                         Standard orientation:
 ---------------------------------------------------------------------
 Center     Atomic      Atomic             Coordinates (Angstroms)
 Number     Number       Type             X           Y           Z
 ---------------------------------------------------------------------
      1          8           0       -1.301577   -0.329358    0.000000
      2          6           0        0.000000    0.096997    0.000000
      3          6           0        0.938016   -1.064859    0.000000
      4          6           0        0.357596    1.380240    0.000000
      5          1           0        1.972123   -0.730551    0.000000
      6          1           0        0.766302   -1.689151    0.878710
      7          1           0        0.766302   -1.689151   -0.878710
      8          1           0       -0.374334    2.177797    0.000000
      9          1           0        1.398880    1.659889    0.000000
     10          1           0       -1.890331    0.431764    0.000000
 ---------------------------------------------------------------------

 SCF Done:  E(ROHF) =  -192.025691313     A.U. after   11 cycles

 The electronic state is 1-A'.
 Alpha  occ. eigenvalues --  -20.58457 -11.30146 -11.22505 -11.20496  -1.40099
 Alpha  occ. eigenvalues --   -1.05404  -0.94853  -0.79289  -0.68119  -0.64263
 Alpha  occ. eigenvalues --   -0.60703  -0.55386  -0.53979  -0.53560  -0.52208
 Alpha  occ. eigenvalues --   -0.34156
 Alpha virt. eigenvalues --    0.04819   0.05261   0.06268   0.07625   0.08004
 Alpha virt. eigenvalues --    0.08900   0.09951   0.11261   0.11684   0.12798
 Alpha virt. eigenvalues --    0.17887   0.17987   0.18609   0.19618   0.20640

 Mulliken charges and spin densities:
               1          2
     1  O   -0.728133   0.000000
     2  C    0.415914   0.000000
     3  C   -0.257747   0.000000
     4  C   -0.412091   0.000000
     5  H    0.102213   0.000000
     6  H    0.102121   0.000000
     7  H    0.102121   0.000000
     8  H    0.120425   0.000000
     9  H    0.138845   0.000000
    10  H    0.416332   0.000000
 Sum of Mulliken charges =  -0.00000   0.00000

 Dipole moment (field-independent basis, Debye):
    X=              0.0862    Y=              0.5840    Z=              0.0000  Tot=              0.5903
 Quadrupole moment (field-independent basis, Debye-Ang):
   XX=            -22.5465   YY=            -24.7235   ZZ=            -27.4419
   XY=             -3.4236   XZ=             -0.0000   YZ=             -0.0000

 Normal termination of Gaussian 16 at Sat Sep 30 01:30:08 2023.
