 Gaussian 16, Revision B.01,
 Gaussian 16:  ES64L-G16RevB.01 20-Dec-2017

 --------------------
 # b3lyp/gen opt freq
 --------------------

 -------------------
 CH3F, B3LYP/pcseg-2
 -------------------
 Symbolic Z-matrix:
 Charge =  0 Multiplicity = 1

 SCF Done:  E(RB3LYP) =  -139.782739331     A.U. after   10 cycles
 SCF Done:  E(RB3LYP) =  -139.807172549     A.U. after   11 cycles
 SCF Done:  E(RB3LYP) =  -139.807779637     A.U. after    9 cycles
 SCF Done:  E(RB3LYP) =  -139.807838273     A.U. after    7 cycles
 SCF Done:  E(RB3LYP) =  -139.807860175     A.U. after    7 cycles
 Optimization completed.
    -- Stationary point found.
 Normal termination of Gaussian 16 at Wed Feb  2 18:04:55 2022.

 ------------------------------------------------------------------
 #N Geom=AllCheck Guess=TCheck SCRF=Check GenChk RB3LYP/ChkBas Freq
 ------------------------------------------------------------------

 Structure from the checkpoint file:  "/wrk/irikura/Gau-15941.chk"
 -------------------
 CH3F, B3LYP/pcseg-2
 -------------------
 Charge =  0 Multiplicity = 1

                         Standard orientation:
 ---------------------------------------------------------------------
 Center     Atomic      Atomic             Coordinates (Angstroms)
 Number     Number       Type             X           Y           Z
 ---------------------------------------------------------------------
      1          6           0        0.000000    0.000000   -0.636666
      2          9           0        0.000000    0.000000    0.753583
      3          1           0        0.000000    1.031919   -0.987419
      4          1           0        0.893668   -0.515959   -0.987419
      5          1           0       -0.893668   -0.515959   -0.987419
 ---------------------------------------------------------------------

 SCF Done:  E(RB3LYP) =  -139.807860175     A.U. after    1 cycles

 The electronic state is 1-A1.
 Alpha  occ. eigenvalues --  -24.66036 -10.24768  -1.19111  -0.70611  -0.49289
 Alpha  occ. eigenvalues --   -0.48752  -0.48752  -0.35409  -0.35409
 Alpha virt. eigenvalues --    0.01733   0.05207   0.07352   0.07352   0.17004
 Alpha virt. eigenvalues --    0.17004   0.26606   0.32342   0.33080   0.33080
 Alpha virt. eigenvalues --    0.33242   0.47121   0.48366   0.48366   0.72666

 Mulliken charges:
               1
     1  C    0.234494
     2  F   -0.323128
     3  H    0.029545
     4  H    0.029545
     5  H    0.029545
 Sum of Mulliken charges =   0.00000

 Dipole moment (field-independent basis, Debye):
    X=              0.0000    Y=             -0.0000    Z=             -1.9275  Tot=              1.9275
 Quadrupole moment (field-independent basis, Debye-Ang):
   XX=            -11.9392   YY=            -11.9392   ZZ=            -12.6812
   XY=             -0.0000   XZ=             -0.0000   YZ=              0.0000

  Exact polarizability:  15.039  -0.000  15.039  -0.000   0.000  15.867
 Approx polarizability:  18.377  -0.000  18.377   0.000  -0.000  20.020

                      1                      2                      3
                     A1                      E                      E
 Frequencies --   1047.8733              1194.1373              1194.1374
 Red. masses --      8.7449                 1.2495                 1.2495
 Frc consts  --      5.6575                 1.0498                 1.0498
 IR Inten    --    111.9452                 0.9632                 0.9633

                      4                      5                      6
                     A1                      E                      E
 Frequencies --   1486.5682              1492.6589              1492.6594
 Red. masses --      1.1306                 1.0512                 1.0512
 Frc consts  --      1.4721                 1.3799                 1.3799
 IR Inten    --      2.2011                 3.8470                 3.8465

                      7                      8                      9
                     A1                      E                      E
 Frequencies --   3030.5576              3111.7890              3111.7892
 Red. masses --      1.0260                 1.1079                 1.1079
 Frc consts  --      5.5519                 6.3209                 6.3209
 IR Inten    --     30.7796                32.8783                32.8799

 - Thermochemistry -
 -------------------
 Temperature   298.150 Kelvin.  Pressure   1.00000 Atm.
 Atom     1 has atomic number  6 and mass  12.00000

 Molecular mass:    34.02188 amu.
 Principal axes and moments of inertia in atomic units:
                           1         2         3
     Eigenvalues --    11.49728  70.74354  70.74354
           X            0.00000   0.92848  -0.37139
           Y            0.00000   0.37139   0.92848
           Z            1.00000  -0.00000  -0.00000
 This molecule is a prolate symmetric top.
 Rotational symmetry number  3.
 Rotational temperatures (Kelvin)      7.53343     1.22434     1.22434
 Rotational constants (GHZ):         156.97119    25.51104    25.51104
 Zero-point vibrational energy     102652.6 (Joules/Mol)
                                   24.53455 (Kcal/Mol)
 Vibrational temperatures:   1507.66  1718.10  1718.10  2138.84  2147.60
          (Kelvin)           2147.60  4360.30  4477.17  4477.17

 Zero-point correction=                           0.039098 (Hartree/Particle)
 Thermal correction to Energy=                    0.042011
 Thermal correction to Enthalpy=                  0.042955
 Thermal correction to Gibbs Free Energy=         0.017672
 Sum of electronic and zero-point Energies=           -139.768762
 Sum of electronic and thermal Energies=              -139.765849
 Sum of electronic and thermal Enthalpies=            -139.764905
 Sum of electronic and thermal Free Energies=         -139.790188

                     E (Thermal)             CV                S
                      KCal/Mol        Cal/Mol-Kelvin    Cal/Mol-Kelvin
 Total                   26.362              6.939             53.213
 Electronic               0.000              0.000              0.000
 Translational            0.889              2.981             36.504
 Rotational               0.889              2.981             16.510
 Vibrational             24.585              0.978              0.199

 Optimization completed.
    -- Stationary point found.
 Normal termination of Gaussian 16 at Wed Feb  2 18:05:45 2022.
