 Gaussian 16, Revision B.01,
 Gaussian 16:  ES64L-G16RevB.01 20-Dec-2017

 --------------------
 # b3lyp/gen opt freq
 --------------------

 --------------------------
 methylamine, B3LYP/pcseg-2
 --------------------------
 Symbolic Z-matrix:
 Charge =  0 Multiplicity = 1

 SCF Done:  E(RB3LYP) =  -95.9049588890     A.U. after   10 cycles
 SCF Done:  E(RB3LYP) =  -95.9050454084     A.U. after    8 cycles
 SCF Done:  E(RB3LYP) =  -95.9050525803     A.U. after    8 cycles
 Optimization completed.
    -- Stationary point found.
 Normal termination of Gaussian 16 at Thu Feb 24 15:48:45 2022.

 ------------------------------------------------------------------
 #N Geom=AllCheck Guess=TCheck SCRF=Check GenChk RB3LYP/ChkBas Freq
 ------------------------------------------------------------------

 Structure from the checkpoint file:  "/wrk/irikura/Gau-22220.chk"
 --------------------------
 methylamine, B3LYP/pcseg-2
 --------------------------
 Charge =  0 Multiplicity = 1

                         Standard orientation:
 ---------------------------------------------------------------------
 Center     Atomic      Atomic             Coordinates (Angstroms)
 Number     Number       Type             X           Y           Z
 ---------------------------------------------------------------------
      1          6           0        0.048724    0.706182    0.000000
      2          7           0        0.048724   -0.757044   -0.000000
      3          1           0       -0.944722    1.171521    0.000000
      4          1           0        0.587191    1.064886    0.877059
      5          1           0        0.587191    1.064886   -0.877059
      6          1           0       -0.431535   -1.119539   -0.812975
      7          1           0       -0.431535   -1.119539    0.812975
 ---------------------------------------------------------------------

 SCF Done:  E(RB3LYP) =  -95.9050525803     A.U. after    1 cycles

 The electronic state is 1-A'.
 Alpha  occ. eigenvalues --  -14.29347 -10.18676  -0.87606  -0.66210  -0.49325
 Alpha  occ. eigenvalues --   -0.44277  -0.40653  -0.37166  -0.24215
 Alpha virt. eigenvalues --    0.01097   0.04257   0.06107   0.07970   0.10011
 Alpha virt. eigenvalues --    0.13623   0.18698   0.18710   0.25632   0.27286
 Alpha virt. eigenvalues --    0.30169   0.33143   0.34529   0.35609   0.36510

 Mulliken charges:
               1
     1  C    0.071929
     2  N   -0.358317
     3  H    0.010454
     4  H    0.027084
     5  H    0.027084
     6  H    0.110884
     7  H    0.110884
 Sum of Mulliken charges =   0.00000

 Dipole moment (field-independent basis, Debye):
    X=             -1.2826    Y=              0.3547    Z=              0.0000  Tot=              1.3307
 Quadrupole moment (field-independent basis, Debye-Ang):
   XX=            -15.2420   YY=            -14.4386   ZZ=            -12.7316
   XY=              2.1625   XZ=             -0.0000   YZ=             -0.0000

  Exact polarizability:  22.181   0.254  25.782  -0.000  -0.000  22.711
 Approx polarizability:  28.623   0.387  30.858  -0.000  -0.000  30.426

                      1                      2                      3
                     A"                     A'                     A"
 Frequencies --    295.6858               825.0763               972.6616
 Red. masses --      1.0292                 1.2272                 1.0489
 Frc consts  --      0.0530                 0.4922                 0.5846
 IR Inten    --     34.6590               166.5891                 0.0613

                      4                      5                      6
                     A'                     A'                     A"
 Frequencies --   1054.5747              1167.5490              1345.2359
 Red. masses --      3.6400                 1.3787                 1.3533
 Frc consts  --      2.3851                 1.1073                 1.4429
 IR Inten    --     11.8164                 6.8830                 0.0143

                      7                      8                      9
                     A'                     A'                     A"
 Frequencies --   1458.9349              1496.1211              1516.6943
 Red. masses --      1.1591                 1.0536                 1.0339
 Frc consts  --      1.4536                 1.3896                 1.4013
 IR Inten    --      2.0248                 6.8952                 4.2040

                     10                     11                     12
                     A'                     A'                     A'
 Frequencies --   1663.2935              2972.2985              3062.5964
 Red. masses --      1.0838                 1.0576                 1.0754
 Frc consts  --      1.7666                 5.5048                 5.9432
 IR Inten    --     23.6026                91.8860                33.3758

                     13                     14                     15
                     A"                     A'                     A"
 Frequencies --   3098.0631              3504.7118              3581.4411
 Red. masses --      1.1031                 1.0490                 1.0937
 Frc consts  --      6.2382                 7.5912                 8.2650
 IR Inten    --     30.2659                 0.2307                 1.2451

 - Thermochemistry -
 -------------------
 Temperature   298.150 Kelvin.  Pressure   1.00000 Atm.
 Atom     1 has atomic number  6 and mass  12.00000

 Molecular mass:    31.04220 amu.
 Principal axes and moments of inertia in atomic units:
                           1         2         3
     Eigenvalues --    17.29299  79.23419  82.52986
           X            0.05683  -0.00000   0.99838
           Y            0.99838   0.00000  -0.05683
           Z           -0.00000   1.00000   0.00000
 This molecule is an asymmetric top.
 Rotational symmetry number  1.
 Rotational temperatures (Kelvin)      5.00861     1.09314     1.04949
 Rotational constants (GHZ):         104.36257    22.77730    21.86774
 Zero-point vibrational energy     167566.5 (Joules/Mol)
                                   40.04936 (Kcal/Mol)
 Warning -- explicit consideration of   1 degrees of freedom as
           vibrations may cause significant error
 Vibrational temperatures:    425.43  1187.10  1399.44  1517.30  1679.84
          (Kelvin)           1935.49  2099.08  2152.58  2182.18  2393.11
                             4276.47  4406.39  4457.42  5042.50  5152.89

 Zero-point correction=                           0.063823 (Hartree/Particle)
 Thermal correction to Energy=                    0.067269
 Thermal correction to Enthalpy=                  0.068214
 Thermal correction to Gibbs Free Energy=         0.040886
 Sum of electronic and zero-point Energies=            -95.841230
 Sum of electronic and thermal Energies=               -95.837783
 Sum of electronic and thermal Enthalpies=             -95.836839
 Sum of electronic and thermal Free Energies=          -95.864167

                     E (Thermal)             CV                S
                      KCal/Mol        Cal/Mol-Kelvin    Cal/Mol-Kelvin
 Total                   42.212              9.613             57.516
 Electronic               0.000              0.000              0.000
 Translational            0.889              2.981             36.231
 Rotational               0.889              2.981             19.364
 Vibrational             40.435              3.651              1.921
 Vibration     1          0.690              1.682              1.441

 Optimization completed.
    -- Stationary point found.
 Normal termination of Gaussian 16 at Thu Feb 24 15:49:26 2022.
