 Gaussian 16, Revision B.01,

 ---------------------------------------
 # b3lyp/gen opt freq CPHF(Grid=OneStep)
 ---------------------------------------

 ---------------------------
 nitromethane, B3LYP/pcseg-2
 ---------------------------
 Symbolic Z-matrix:
 Charge =  0 Multiplicity = 1

 SCF Done:  E(RB3LYP) =  -245.119652327     A.U. after   13 cycles
 Optimization completed.
    -- Stationary point found.
 Normal termination of Gaussian 16 at Fri Sep 29 23:58:13 2023.

 ------------------------------------------------------------------
 #N Geom=AllCheck Guess=TCheck SCRF=Check GenChk RB3LYP/ChkBas Freq
 ------------------------------------------------------------------

 Structure from the checkpoint file:  "ch3no2.chk"
 ---------------------------
 nitromethane, B3LYP/pcseg-2
 ---------------------------
 Charge =  0 Multiplicity = 1

 SCF Done:  E(RB3LYP) =  -245.119652327     A.U. after    1 cycles

  Exact polarizability:  31.565  -0.452  37.353  -0.204  -0.003  21.037
 Approx polarizability:  39.982  -1.366  71.773  -0.369  -0.006  29.064

                      1                      2                      3
                      A                      A                      A
 Frequencies --      3.1788               479.8528               619.7764
 Red. masses --      1.0925                 3.3889                 3.4276
 Frc consts  --      0.0000                 0.4598                 0.7757
 IR Inten    --      0.0197                 1.0063                 4.2925

                      4                      5                      6
                      A                      A                      A
 Frequencies --    659.6125               927.1553              1110.7773
 Red. masses --      6.1004                10.2067                 1.3948
 Frc consts  --      1.5638                 5.1694                 1.0140
 IR Inten    --     17.9513                13.5896                13.2189

                      7                      8                      9
                      A                      A                      A
 Frequencies --   1136.6237              1400.8263              1430.0719
 Red. masses --      1.5528                 1.7691                 2.6322
 Frc consts  --      1.1819                 2.0453                 3.1716
 IR Inten    --      0.8421                57.9653                46.7600

                     10                     11                     12
                      A                      A                      A
 Frequencies --   1464.0283              1476.9791              1619.3062
 Red. masses --      1.0944                 1.0558                 8.5906
 Frc consts  --      1.3821                 1.3570                13.2719
 IR Inten    --     45.2693                11.9361               335.9296

                     13                     14                     15
                      A                      A                      A
 Frequencies --   3082.3871              3169.9260              3202.5941
 Red. masses --      1.0296                 1.1044                 1.1100
 Frc consts  --      5.7637                 6.5385                 6.7078
 IR Inten    --      0.6294                 0.9326                 0.9118

 - Thermochemistry -
 -------------------
 Temperature   298.150 Kelvin.  Pressure   1.00000 Atm.
 Atom     1 has atomic number  6 and mass  12.00000

 Molecular mass:    61.01638 amu.
 Principal axes and moments of inertia in atomic units:
                           1         2         3
     Eigenvalues --   145.80389 171.36216 305.82565
           X            0.99990   0.01442  -0.00067
           Y           -0.01442   0.99990  -0.00002
           Z            0.00067   0.00003   1.00000
 This molecule is an asymmetric top.
 Rotational symmetry number  1.
 Rotational temperatures (Kelvin)      0.59404     0.50544     0.28321
 Rotational constants (GHZ):          12.37787    10.53174     5.90121
 Zero-point vibrational energy     130291.8 (Joules/Mol)
                                   31.14050 (Kcal/Mol)
 Warning -- explicit consideration of   3 degrees of freedom as
           vibrations may cause significant error
 Vibrational temperatures:      4.57   690.40   891.72   949.04  1333.97
          (Kelvin)           1598.16  1635.35  2015.48  2057.55  2106.41
                             2125.04  2329.82  4434.87  4560.82  4607.82

 Zero-point correction=                           0.049626 (Hartree/Particle)
 Thermal correction to Energy=                    0.054036
 Thermal correction to Enthalpy=                  0.054980
 Thermal correction to Gibbs Free Energy=         0.019880
 Sum of electronic and zero-point Energies=           -245.070027
 Sum of electronic and thermal Energies=              -245.065616
 Sum of electronic and thermal Enthalpies=            -245.064672
 Sum of electronic and thermal Free Energies=         -245.099773

                     E (Thermal)             CV                S
                      KCal/Mol        Cal/Mol-Kelvin    Cal/Mol-Kelvin
 Total                   33.908             12.544             73.876
 Electronic               0.000              0.000              0.000
 Translational            0.889              2.981             38.245
 Rotational               0.889              2.981             23.551
 Vibrational             32.131              6.582             12.080
 Vibration     1          0.592              1.987             10.288
 Vibration     2          0.836              1.295              0.710
 Vibration     3          0.980              0.990              0.417

                           ! Non-Optimized Parameters !
 Normal termination of Gaussian 16 at Sat Sep 30 00:00:56 2023.
 Gaussian 16:  ES64L-G16RevB.01 20-Dec-2017

 ---------------------------------
 # rohf/gen geom=check guess=check
 ---------------------------------

 ------------------------------
 nitromethane, ROHF/cc-pVTZ-F12
 ------------------------------
 Structure from the checkpoint file:  "ch3no2.chk"
 Charge =  0 Multiplicity = 1

                         Standard orientation:
 ---------------------------------------------------------------------
 Center     Atomic      Atomic             Coordinates (Angstroms)
 Number     Number       Type             X           Y           Z
 ---------------------------------------------------------------------
      1          6           0       -1.324054   -0.028757   -0.002192
      2          7           0        0.174165   -0.000001   -0.005929
      3          1           0       -1.640765    0.277856    0.991265
      4          1           0       -1.667998    0.692331   -0.735952
      5          1           0       -1.647319   -1.037759   -0.225106
      6          8           0        0.759059   -1.068845    0.001543
      7          8           0        0.701097    1.098860    0.001513
 ---------------------------------------------------------------------

 SCF Done:  E(ROHF) =  -243.776007302     A.U. after   13 cycles

 The electronic state is 1-A.
 Alpha  occ. eigenvalues --  -20.60811 -20.60502 -15.85299 -11.31204  -1.61238
 Alpha  occ. eigenvalues --   -1.40729  -1.10121  -0.87178  -0.75841  -0.73943
 Alpha  occ. eigenvalues --   -0.73850  -0.62997  -0.60448  -0.49916  -0.49589
 Alpha  occ. eigenvalues --   -0.45937
 Alpha virt. eigenvalues --    0.04144   0.05596   0.06374   0.07128   0.09090
 Alpha virt. eigenvalues --    0.11813   0.12048   0.14715   0.16753   0.17012
 Alpha virt. eigenvalues --    0.20207   0.21073   0.21430   0.21994   0.22350

 Mulliken charges and spin densities:
               1          2
     1  C   -0.084897   0.000000
     2  N    0.476959   0.000000
     3  H    0.140700   0.000000
     4  H    0.147474   0.000000
     5  H    0.163121   0.000000
     6  O   -0.420077   0.000000
     7  O   -0.423280   0.000000
 Sum of Mulliken charges =  -0.00000   0.00000

 Dipole moment (field-independent basis, Debye):
    X=             -4.1274    Y=             -0.1065    Z=             -0.0022  Tot=              4.1288
 Quadrupole moment (field-independent basis, Debye-Ang):
   XX=            -21.9296   YY=            -26.9690   ZZ=            -21.7216
   XY=              0.0581   XZ=             -0.0430   YZ=             -0.0007

 Normal termination of Gaussian 16 at Sat Sep 30 00:02:10 2023.
