 Gaussian 16, Revision B.01,
 Gaussian 16:  ES64L-G16RevB.01 20-Dec-2017

 --------------------
 # b3lyp/gen opt freq
 --------------------

 -----------------------------------
 N-methyl methanimine, B3LYP/pcseg-2
 -----------------------------------
 Symbolic Z-matrix:
 Charge =  0 Multiplicity = 1

 SCF Done:  E(RB3LYP) =  -133.999363393     A.U. after   12 cycles
 SCF Done:  E(RB3LYP) =  -133.999829801     A.U. after   10 cycles
 SCF Done:  E(RB3LYP) =  -133.999841436     A.U. after    7 cycles
 SCF Done:  E(RB3LYP) =  -133.999842787     A.U. after    6 cycles
 Optimization completed.
    -- Stationary point found.
 Normal termination of Gaussian 16 at Fri Sep  8 14:16:11 2023.

 ------------------------------------------------------------------
 #N Geom=AllCheck Guess=TCheck SCRF=Check GenChk RB3LYP/ChkBas Freq
 ------------------------------------------------------------------

 Structure from the checkpoint file:  "/wrk/irikura/Gau-4103.chk"
 -----------------------------------
 N-methyl methanimine, B3LYP/pcseg-2
 -----------------------------------
 Charge =  0 Multiplicity = 1

                         Standard orientation:
 ---------------------------------------------------------------------
 Center     Atomic      Atomic             Coordinates (Angstroms)
 Number     Number       Type             X           Y           Z
 ---------------------------------------------------------------------
      1          6           0       -1.074511   -0.422826    0.000000
      2          1           0       -1.703132   -0.256234    0.876068
      3          1           0       -1.703132   -0.256234   -0.876068
      4          1           0       -0.726668   -1.464216    0.000000
      5          7           0        0.000000    0.548405    0.000000
      6          6           0        1.187034    0.128443    0.000000
      7          1           0        1.450077   -0.937405    0.000000
      8          1           0        2.007718    0.841549    0.000000
 ---------------------------------------------------------------------

 SCF Done:  E(RB3LYP) =  -133.999842787     A.U. after    1 cycles

 The electronic state is 1-A'.
 Alpha  occ. eigenvalues --  -14.31809 -10.21142 -10.19536  -0.92667  -0.71649
 Alpha  occ. eigenvalues --   -0.58699  -0.48453  -0.46602  -0.44020  -0.38552
 Alpha  occ. eigenvalues --   -0.31373  -0.26204
 Alpha virt. eigenvalues --   -0.02311   0.02061   0.04535   0.06244   0.08286
 Alpha virt. eigenvalues --    0.08822   0.10511   0.15383   0.16671   0.18617
 Alpha virt. eigenvalues --    0.21924   0.22679   0.28436   0.28786   0.33184

 Mulliken charges:
               1
     1  C    0.087028
     2  H    0.040618
     3  H    0.040618
     4  H   -0.009161
     5  N   -0.280459
     6  C    0.069500
     7  H   -0.001039
     8  H    0.052895
 Sum of Mulliken charges =  -0.00000

 Dipole moment (field-independent basis, Debye):
    X=              0.3681    Y=             -1.4764    Z=              0.0000  Tot=              1.5216
 Quadrupole moment (field-independent basis, Debye-Ang):
   XX=            -16.6503   YY=            -21.4147   ZZ=            -19.9804
   XY=              0.7121   XZ=             -0.0000   YZ=              0.0000

  Exact polarizability:  45.863   0.454  32.954  -0.000  -0.000  24.864
 Approx polarizability:  63.677  -4.046  44.790  -0.000   0.000  34.444

                      1                      2                      3
                     A"                     A'                     A"
 Frequencies --    219.0836               478.6870               697.8760
 Red. masses --      1.2485                 2.1312                 1.0587
 Frc consts  --      0.0353                 0.2877                 0.3038
 IR Inten    --      8.3864                 6.2395                 1.1794

                      4                      5                      6
                     A'                     A"                     A'
 Frequencies --    964.1141              1068.1306              1125.7821
 Red. masses --      4.1272                 1.3415                 1.2551
 Frc consts  --      2.2603                 0.9018                 0.9372
 IR Inten    --     14.5333                19.6558                 0.1594

                      7                      8                      9
                     A"                     A'                     A'
 Frequencies --   1144.6985              1240.9993              1436.5667
 Red. masses --      1.4043                 1.6581                 1.1782
 Frc consts  --      1.0841                 1.5046                 1.4326
 IR Inten    --      0.5858                18.5891                 1.3007

                     10                     11                     12
                     A"                     A'                     A'
 Frequencies --   1475.0280              1479.2010              1508.9862
 Red. masses --      1.0429                 1.0883                 1.1016
 Frc consts  --      1.3369                 1.4029                 1.4779
 IR Inten    --      5.5734                 2.0620                22.0980

                     13                     14                     15
                     A'                     A'                     A'
 Frequencies --   1737.8378              2968.4283              2979.9450
 Red. masses --      6.2188                 1.0508                 1.0631
 Frc consts  --     11.0657                 5.4556                 5.5622
 IR Inten    --     18.0465                42.0342                86.1823

                     16                     17                     18
                     A'                     A"                     A'
 Frequencies --   3067.6660              3085.9164              3129.1266
 Red. masses --      1.0839                 1.1013                 1.1025
 Frc consts  --      6.0100                 6.1790                 6.3602
 IR Inten    --     23.0005                14.1849                28.3499

 - Thermochemistry -
 -------------------
 Temperature   298.150 Kelvin.  Pressure   1.00000 Atm.
 Atom     1 has atomic number  6 and mass  12.00000

 Molecular mass:    43.04220 amu.
 Principal axes and moments of inertia in atomic units:
                           1         2         3
     Eigenvalues --    33.34227 169.33841 191.63180
           X            0.96582  -0.25922   0.00000
           Y            0.25922   0.96582   0.00000
           Z            0.00000   0.00000   1.00000
 This molecule is an asymmetric top.
 Rotational symmetry number  1.
 Rotational temperatures (Kelvin)      2.59772     0.51148     0.45198
 Rotational constants (GHZ):          54.12773    10.65760     9.41775
 Zero-point vibrational energy     178291.9 (Joules/Mol)
                                   42.61278 (Kcal/Mol)
 Warning -- explicit consideration of   2 degrees of freedom as
           vibrations may cause significant error
 Vibrational temperatures:    315.21   688.72  1004.09  1387.15  1536.80
          (Kelvin)           1619.75  1646.97  1785.52  2066.90  2122.24
                             2128.24  2171.09  2500.36  4270.91  4287.48
                             4413.69  4439.95  4502.12

 Zero-point correction=                           0.067908 (Hartree/Particle)
 Thermal correction to Energy=                    0.071778
 Thermal correction to Enthalpy=                  0.072722
 Thermal correction to Gibbs Free Energy=         0.043177
 Sum of electronic and zero-point Energies=           -133.931935
 Sum of electronic and thermal Energies=              -133.928065
 Sum of electronic and thermal Enthalpies=            -133.927121
 Sum of electronic and thermal Free Energies=         -133.956665

                     E (Thermal)             CV                S
                      KCal/Mol        Cal/Mol-Kelvin    Cal/Mol-Kelvin
 Total                   45.041             11.674             62.181
 Electronic               0.000              0.000              0.000
 Translational            0.889              2.981             37.205
 Rotational               0.889              2.981             21.608
 Vibrational             43.264              5.712              3.368
 Vibration     1          0.647              1.812              1.967
 Vibration     2          0.835              1.297              0.714

 Optimization completed.
    -- Stationary point found.
 Normal termination of Gaussian 16 at Fri Sep  8 14:17:14 2023.
