 Gaussian 16, Revision B.01,
 Gaussian 16:  ES64L-G16RevB.01 20-Dec-2017

 --------------------------
 # b3lyp/gen opt=tight freq
 --------------------------

 ---------------------------
 nitromethane, B3LYP/pcseg-2
 ---------------------------
 Symbolic Z-matrix:
 Charge =  0 Multiplicity = 1

 SCF Done:  E(RB3LYP) =  -245.117083680     A.U. after   13 cycles
 SCF Done:  E(RB3LYP) =  -245.119428353     A.U. after   12 cycles
 SCF Done:  E(RB3LYP) =  -245.105877556     A.U. after   14 cycles
 SCF Done:  E(RB3LYP) =  -245.119646465     A.U. after   10 cycles
 SCF Done:  E(RB3LYP) =  -245.119651505     A.U. after    8 cycles
 SCF Done:  E(RB3LYP) =  -245.119652298     A.U. after    7 cycles
 SCF Done:  E(RB3LYP) =  -245.119652325     A.U. after    6 cycles
 SCF Done:  E(RB3LYP) =  -245.119652327     A.U. after    5 cycles
 Optimization completed.
    -- Stationary point found.
 Normal termination of Gaussian 16 at Thu Jun 16 18:43:27 2022.

 ------------------------------------------------------------------
 #N Geom=AllCheck Guess=TCheck SCRF=Check GenChk RB3LYP/ChkBas Freq
 ------------------------------------------------------------------

 Structure from the checkpoint file:  "/wrk/irikura/Gau-2784.chk"
 ---------------------------
 nitromethane, B3LYP/pcseg-2
 ---------------------------
 Charge =  0 Multiplicity = 1

                         Standard orientation:
 ---------------------------------------------------------------------
 Center     Atomic      Atomic             Coordinates (Angstroms)
 Number     Number       Type             X           Y           Z
 ---------------------------------------------------------------------
      1          6           0       -1.324054   -0.028757   -0.002192
      2          7           0        0.174165   -0.000001   -0.005929
      3          1           0       -1.640765    0.277856    0.991265
      4          1           0       -1.667998    0.692331   -0.735952
      5          1           0       -1.647319   -1.037759   -0.225106
      6          8           0        0.759059   -1.068845    0.001543
      7          8           0        0.701097    1.098860    0.001513
 ---------------------------------------------------------------------

 SCF Done:  E(RB3LYP) =  -245.119652327     A.U. after    1 cycles

 The electronic state is 1-A.
 Alpha  occ. eigenvalues --  -19.17237 -19.17081 -14.56583 -10.24650  -1.24779
 Alpha  occ. eigenvalues --   -1.07579  -0.82765  -0.63604  -0.56550  -0.55505
 Alpha  occ. eigenvalues --   -0.53535  -0.46442  -0.44665  -0.33351  -0.32520
 Alpha  occ. eigenvalues --   -0.31280
 Alpha virt. eigenvalues --   -0.08584   0.00370   0.05349   0.05982   0.06315
 Alpha virt. eigenvalues --    0.13279   0.14343   0.15443   0.19875   0.27679
 Alpha virt. eigenvalues --    0.28800   0.29129   0.30759   0.31034   0.31650

 Mulliken charges:
               1
     1  C    0.053043
     2  N    0.401260
     3  H    0.068097
     4  H    0.069017
     5  H    0.073158
     6  O   -0.332122
     7  O   -0.332453
 Sum of Mulliken charges =  -0.00000

 Dipole moment (field-independent basis, Debye):
    X=             -3.6712    Y=             -0.0736    Z=              0.0075  Tot=              3.6719
 Quadrupole moment (field-independent basis, Debye-Ang):
   XX=            -22.4219   YY=            -26.8153   ZZ=            -21.7452
   XY=              0.0575   XZ=             -0.0503   YZ=             -0.0007

  Exact polarizability:  31.565  -0.452  37.353  -0.204  -0.003  21.037
 Approx polarizability:  39.982  -1.366  71.773  -0.369  -0.006  29.064

                      1                      2                      3
                      A                      A                      A
 Frequencies --      3.3518               479.8518               619.7784
 Red. masses --      1.0925                 3.3889                 3.4276
 Frc consts  --      0.0000                 0.4598                 0.7757
 IR Inten    --      0.0197                 1.0062                 4.2928

                      4                      5                      6
                      A                      A                      A
 Frequencies --    659.6098               927.1536              1110.7816
 Red. masses --      6.1004                10.2068                 1.3948
 Frc consts  --      1.5638                 5.1694                 1.0140
 IR Inten    --     17.9513                13.5893                13.2204

                      7                      8                      9
                      A                      A                      A
 Frequencies --   1136.6262              1400.8276              1430.0779
 Red. masses --      1.5528                 1.7689                 2.6325
 Frc consts  --      1.1819                 2.0452                 3.1721
 IR Inten    --      0.8420                57.9590                46.7709

                     10                     11                     12
                      A                      A                      A
 Frequencies --   1464.0306              1476.9802              1619.2890
 Red. masses --      1.0945                 1.0558                 8.5902
 Frc consts  --      1.3821                 1.3570                13.2710
 IR Inten    --     45.2751                11.9366               335.9365

                     13                     14                     15
                      A                      A                      A
 Frequencies --   3082.3869              3169.9276              3202.5946
 Red. masses --      1.0296                 1.1044                 1.1100
 Frc consts  --      5.7637                 6.5385                 6.7078
 IR Inten    --      0.6299                 0.9328                 0.9109

 - Thermochemistry -
 -------------------
 Temperature   298.150 Kelvin.  Pressure   1.00000 Atm.
 Atom     1 has atomic number  6 and mass  12.00000

 Molecular mass:    61.01638 amu.
 Principal axes and moments of inertia in atomic units:
                           1         2         3
     Eigenvalues --   145.80389 171.36220 305.82569
           X            0.99990   0.01442  -0.00067
           Y           -0.01442   0.99990  -0.00002
           Z            0.00067   0.00003   1.00000
 This molecule is an asymmetric top.
 Rotational symmetry number  1.
 Rotational temperatures (Kelvin)      0.59404     0.50544     0.28321
 Rotational constants (GHZ):          12.37787    10.53173     5.90121
 Zero-point vibrational energy     130292.9 (Joules/Mol)
                                   31.14074 (Kcal/Mol)
 Warning -- explicit consideration of   3 degrees of freedom as
           vibrations may cause significant error
 Vibrational temperatures:      4.82   690.40   891.72   949.03  1333.97
          (Kelvin)           1598.17  1635.35  2015.48  2057.56  2106.41
                             2125.05  2329.80  4434.87  4560.82  4607.82

 Zero-point correction=                           0.049626 (Hartree/Particle)
 Thermal correction to Energy=                    0.054036
 Thermal correction to Enthalpy=                  0.054980
 Thermal correction to Gibbs Free Energy=         0.019930
 Sum of electronic and zero-point Energies=           -245.070026
 Sum of electronic and thermal Energies=              -245.065616
 Sum of electronic and thermal Enthalpies=            -245.064672
 Sum of electronic and thermal Free Energies=         -245.099723

                     E (Thermal)             CV                S
                      KCal/Mol        Cal/Mol-Kelvin    Cal/Mol-Kelvin
 Total                   33.908             12.544             73.770
 Electronic               0.000              0.000              0.000
 Translational            0.889              2.981             38.245
 Rotational               0.889              2.981             23.551
 Vibrational             32.131              6.582             11.974
 Vibration     1          0.592              1.987             10.183
 Vibration     2          0.836              1.295              0.710
 Vibration     3          0.980              0.990              0.417

                           ! Non-Optimized Parameters !
 Normal termination of Gaussian 16 at Thu Jun 16 18:44:17 2022.
