 Gaussian 16, Revision B.01,
 Gaussian 16:  ES64L-G16RevB.01 20-Dec-2017

 --------------------
 # b3lyp/gen opt freq
 --------------------

 ------------------------------
 methyl amidogen, B3LYP/pcseg-2
 ------------------------------
 Symbolic Z-matrix:
 Charge =  0 Multiplicity = 2

 SCF Done:  E(UB3LYP) =  -95.2363596941     A.U. after   13 cycles
 SCF Done:  E(UB3LYP) =  -95.2364438824     A.U. after    9 cycles
 SCF Done:  E(UB3LYP) =  -95.2364460153     A.U. after    8 cycles
 Optimization completed.
    -- Stationary point found.
 Normal termination of Gaussian 16 at Thu Jun 16 10:02:59 2022.

 ------------------------------------------------------------------
 #N Geom=AllCheck Guess=TCheck SCRF=Check GenChk UB3LYP/ChkBas Freq
 ------------------------------------------------------------------

 Structure from the checkpoint file:  "/wrk/irikura/Gau-29608.chk"
 ------------------------------
 methyl amidogen, B3LYP/pcseg-2
 ------------------------------
 Charge =  0 Multiplicity = 2

                         Standard orientation:
 ---------------------------------------------------------------------
 Center     Atomic      Atomic             Coordinates (Angstroms)
 Number     Number       Type             X           Y           Z
 ---------------------------------------------------------------------
      1          6           0       -0.059777   -0.624293    0.000000
      2          7           0       -0.059777    0.813006    0.000000
      3          1           0        0.918865    1.115192    0.000000
      4          1           0       -1.078635   -1.008325    0.000000
      5          1           0        0.468433   -1.026075    0.876344
      6          1           0        0.468433   -1.026075   -0.876344
 ---------------------------------------------------------------------

 SCF Done:  E(UB3LYP) =  -95.2364460153     A.U. after    1 cycles

 The electronic state is 2-A".
 Alpha  occ. eigenvalues --  -14.33394 -10.19974  -0.88743  -0.66116  -0.47843
 Alpha  occ. eigenvalues --   -0.44968  -0.41176  -0.29511  -0.27591
 Alpha virt. eigenvalues --    0.01017   0.04193   0.07076   0.08026   0.12102
 Alpha virt. eigenvalues --    0.17418   0.18116   0.26437   0.29717   0.30367
 Alpha virt. eigenvalues --    0.31104   0.33385   0.33917   0.36160   0.39415

  Beta  occ. eigenvalues --  -14.31432 -10.20046  -0.85079  -0.64483  -0.46782
  Beta  occ. eigenvalues --   -0.42590  -0.40617  -0.27492
  Beta virt. eigenvalues --   -0.09869   0.01210   0.04496   0.07250   0.08100
  Beta virt. eigenvalues --    0.12307   0.17544   0.18652   0.26702   0.30369
  Beta virt. eigenvalues --    0.31915   0.32237   0.33557   0.36736   0.36741

 Mulliken charges and spin densities:
               1          2
     1  C    0.069536  -0.058242
     2  N   -0.272853   0.963520
     3  H    0.102618  -0.019158
     4  H    0.045220   0.001603
     5  H    0.027740   0.056139
     6  H    0.027740   0.056139
 Sum of Mulliken charges =  -0.00000   1.00000

 Dipole moment (field-independent basis, Debye):
    X=              1.4759    Y=             -1.4176    Z=             -0.0000  Tot=              2.0464
 Quadrupole moment (field-independent basis, Debye-Ang):
   XX=            -13.0323   YY=            -14.8969   ZZ=            -13.5785
   XY=              2.0700   XZ=             -0.0000   YZ=              0.0000

  Exact polarizability:  21.636   0.700  25.880   0.000  -0.000  19.288
 Approx polarizability:  28.396   0.654  32.049   0.000   0.000  24.678

                      1                      2                      3
                     A"                     A"                     A'
 Frequencies --    250.2417               946.4907              1004.6875
 Red. masses --      1.1280                 1.2090                 1.2627
 Frc consts  --      0.0416                 0.6381                 0.7509
 IR Inten    --     59.2444                 0.0978                14.1559

                      4                      5                      6
                     A'                     A'                     A'
 Frequencies --   1043.1538              1332.7237              1390.2154
 Red. masses --      3.6611                 1.2825                 1.1323
 Frc consts  --      2.3472                 1.3421                 1.2894
 IR Inten    --     15.2296                 9.0721                11.0724

                      7                      8                      9
                     A"                     A'                     A'
 Frequencies --   1474.5647              1482.6102              2950.7434
 Red. masses --      1.0541                 1.0781                 1.0399
 Frc consts  --      1.3503                 1.3962                 5.3346
 IR Inten    --      7.9209                 3.6199                14.9546

                     10                     11                     12
                     A"                     A'                     A'
 Frequencies --   2982.9881              3093.8253              3388.8878
 Red. masses --      1.0952                 1.0942                 1.0739
 Frc consts  --      5.7417                 6.1705                 7.2664
 IR Inten    --     25.5234                27.8314                 6.8178

 - Thermochemistry -
 -------------------
 Temperature   298.150 Kelvin.  Pressure   1.00000 Atm.
 Atom     1 has atomic number  6 and mass  12.00000

 Molecular mass:    30.03437 amu.
 Principal axes and moments of inertia in atomic units:
                           1         2         3
     Eigenvalues --    14.37776  70.76828  74.09020
           X            0.06199   0.99808   0.00000
           Y            0.99808  -0.06199   0.00000
           Z            0.00000   0.00000   1.00000
 This molecule is an asymmetric top.
 Rotational symmetry number  1.
 Rotational temperatures (Kelvin)      6.02416     1.22391     1.16903
 Rotational constants (GHZ):         125.52309    25.50212    24.35870
 Zero-point vibrational energy     127648.3 (Joules/Mol)
                                   30.50868 (Kcal/Mol)
 Warning -- explicit consideration of   1 degrees of freedom as
           vibrations may cause significant error
 Vibrational temperatures:    360.04  1361.79  1445.52  1500.87  1917.49
          (Kelvin)           2000.21  2121.57  2133.15  4245.46  4291.85
                             4451.32  4875.85

 Zero-point correction=                           0.048619 (Hartree/Particle)
 Thermal correction to Energy=                    0.052078
 Thermal correction to Enthalpy=                  0.053022
 Thermal correction to Gibbs Free Energy=         0.025201
 Sum of electronic and zero-point Energies=            -95.187827
 Sum of electronic and thermal Energies=               -95.184368
 Sum of electronic and thermal Enthalpies=             -95.183424
 Sum of electronic and thermal Free Energies=          -95.211245

                     E (Thermal)             CV                S
                      KCal/Mol        Cal/Mol-Kelvin    Cal/Mol-Kelvin
 Total                   32.680              9.272             58.555
 Electronic               0.000              0.000              1.377
 Translational            0.889              2.981             36.133
 Rotational               0.889              2.981             18.961
 Vibrational             30.902              3.311              2.084
 Vibration     1          0.663              1.762              1.729

 Optimization completed.
    -- Stationary point found.
 Normal termination of Gaussian 16 at Thu Jun 16 10:03:20 2022.
