 Gaussian 16, Revision B.01,
 Gaussian 16:  ES64L-G16RevB.01 20-Dec-2017

 ---------------------------------------
 # b3lyp/gen opt freq CPHF(Grid=OneStep)
 ---------------------------------------

 ---------------------------------
 methylamino methyl, B3LYP/pcseg-2
 ---------------------------------
 Symbolic Z-matrix:
 Charge =  0 Multiplicity = 2

 SCF Done:  E(UB3LYP) =  -134.570331726     A.U. after   15 cycles
 SCF Done:  E(UB3LYP) =  -134.570547645     A.U. after   11 cycles
 SCF Done:  E(UB3LYP) =  -134.570594890     A.U. after   10 cycles
 SCF Done:  E(UB3LYP) =  -134.570600642     A.U. after    9 cycles
 SCF Done:  E(UB3LYP) =  -134.570602522     A.U. after    9 cycles
 SCF Done:  E(UB3LYP) =  -134.570603393     A.U. after    8 cycles
 SCF Done:  E(UB3LYP) =  -134.570603545     A.U. after    8 cycles
 Optimization completed.
    -- Stationary point found.
 Normal termination of Gaussian 16 at Sat Sep 16 01:15:51 2023.

 ------------------------------------------------------------------
 #N Geom=AllCheck Guess=TCheck SCRF=Check GenChk UB3LYP/ChkBas Freq
 ------------------------------------------------------------------

 Structure from the checkpoint file:  "/wrk/irikura/Gau-117821.chk"
 ---------------------------------
 methylamino methyl, B3LYP/pcseg-2
 ---------------------------------
 Charge =  0 Multiplicity = 2

                         Standard orientation:
 ---------------------------------------------------------------------
 Center     Atomic      Atomic             Coordinates (Angstroms)
 Number     Number       Type             X           Y           Z
 ---------------------------------------------------------------------
      1          7           0        0.093447    0.468188   -0.124419
      2          6           0       -1.190405   -0.185777    0.030835
      3          6           0        1.255806   -0.250483    0.079915
      4          1           0        0.117712    1.419703    0.205112
      5          1           0       -1.385542   -0.507225    1.061678
      6          1           0       -1.986650    0.487145   -0.283698
      7          1           0       -1.224165   -1.068914   -0.608472
      8          1           0        2.184634    0.297853    0.050858
      9          1           0        1.247480   -1.288316   -0.219044
 ---------------------------------------------------------------------

 SCF Done:  E(UB3LYP) =  -134.570603545     A.U. after    1 cycles

 The electronic state is 2-A.
 Alpha  occ. eigenvalues --  -14.33104 -10.19925 -10.17640  -0.92710  -0.71023
 Alpha  occ. eigenvalues --   -0.62726  -0.51047  -0.45937  -0.44098  -0.39118
 Alpha  occ. eigenvalues --   -0.38408  -0.31816  -0.14498
 Alpha virt. eigenvalues --    0.01220   0.03670   0.05154   0.07662   0.08071
 Alpha virt. eigenvalues --    0.09942   0.12848   0.15536   0.17371   0.19220
 Alpha virt. eigenvalues --    0.20818   0.25638   0.27126   0.29196   0.30899

  Beta  occ. eigenvalues --  -14.32531 -10.19934 -10.16502  -0.91542  -0.70277
  Beta  occ. eigenvalues --   -0.61053  -0.50450  -0.45214  -0.43213  -0.38945
  Beta  occ. eigenvalues --   -0.37752  -0.27819
  Beta virt. eigenvalues --   -0.02426   0.01339   0.03746   0.05371   0.07810
  Beta virt. eigenvalues --    0.08341   0.10103   0.13022   0.15641   0.17864
  Beta virt. eigenvalues --    0.20196   0.21987   0.26953   0.27460   0.29857

 Mulliken charges and spin densities:
               1          2
     1  N   -0.263244   0.164796
     2  C    0.080827  -0.013701
     3  C   -0.086752   0.857882
     4  H    0.118559  -0.002641
     5  H    0.023264   0.037459
     6  H    0.026059  -0.000810
     7  H    0.033382   0.004680
     8  H    0.036448  -0.022180
     9  H    0.031457  -0.025484
 Sum of Mulliken charges =  -0.00000   1.00000

 Dipole moment (field-independent basis, Debye):
    X=             -1.0806    Y=              0.7418    Z=              0.0770  Tot=              1.3130
 Quadrupole moment (field-independent basis, Debye-Ang):
   XX=            -20.0572   YY=            -18.2403   ZZ=            -23.0262
   XY=              0.5182   XZ=             -0.3243   YZ=              1.4201

  Exact polarizability:  45.366  -1.518  34.040  -0.329  -0.692  32.430
 Approx polarizability:  52.989  -2.228  46.221   0.140  -0.861  42.292

                      1                      2                      3
                      A                      A                      A
 Frequencies --    194.5767               325.4214               389.0980
 Red. masses --      1.1109                 1.2718                 1.9609
 Frc consts  --      0.0248                 0.0794                 0.1749
 IR Inten    --      0.1304                18.5476                18.2427

                      4                      5                      6
                      A                      A                      A
 Frequencies --    585.4471               618.7180               959.4482
 Red. masses --      1.3129                 1.2116                 2.6743
 Frc consts  --      0.2651                 0.2733                 1.4504
 IR Inten    --     69.5406                89.2035                 8.9973

                      7                      8                      9
                      A                      A                      A
 Frequencies --   1042.3363              1138.1694              1249.1457
 Red. masses --      1.1706                 1.3030                 1.9487
 Frc consts  --      0.7493                 0.9945                 1.7915
 IR Inten    --      3.6572                 7.9462                13.0862

                     10                     11                     12
                      A                      A                      A
 Frequencies --   1298.1833              1450.8893              1472.4015
 Red. masses --      2.2391                 1.1426                 1.1951
 Frc consts  --      2.2233                 1.4171                 1.5265
 IR Inten    --     24.0420                 0.2728                10.1185

                     13                     14                     15
                      A                      A                      A
 Frequencies --   1483.1738              1500.4214              1535.9359
 Red. masses --      1.0502                 1.1324                 1.3401
 Frc consts  --      1.3612                 1.5021                 1.8627
 IR Inten    --     10.9812                 2.2651                26.1088

                     16                     17                     18
                      A                      A                      A
 Frequencies --   2971.5545              3060.2760              3107.6453
 Red. masses --      1.0562                 1.0783                 1.1014
 Frc consts  --      5.4950                 5.9497                 6.2671
 IR Inten    --     95.7451                32.2802                21.7402

                     19                     20                     21
                      A                      A                      A
 Frequencies --   3145.7133              3257.2158              3588.3113
 Red. masses --      1.0491                 1.1213                 1.0758
 Frc consts  --      6.1164                 7.0092                 8.1610
 IR Inten    --     13.5697                12.5391                11.6391

 - Thermochemistry -
 -------------------
 Temperature   298.150 Kelvin.  Pressure   1.00000 Atm.
 Atom     1 has atomic number  7 and mass  14.00307

 Molecular mass:    44.05002 amu.
 Principal axes and moments of inertia in atomic units:
                           1         2         3
     Eigenvalues --    41.61694 184.95204 212.67111
           X            0.99996   0.00719  -0.00591
           Y           -0.00675   0.99742   0.07146
           Z            0.00641  -0.07141   0.99743
 This molecule is an asymmetric top.
 Rotational symmetry number  1.
 Rotational temperatures (Kelvin)      2.08122     0.46830     0.40727
 Rotational constants (GHZ):          43.36555     9.75789     8.48607
 Zero-point vibrational energy     205602.7 (Joules/Mol)
                                   49.14022 (Kcal/Mol)
 Warning -- explicit consideration of   5 degrees of freedom as
           vibrations may cause significant error
 Vibrational temperatures:    279.95   468.21   559.83   842.33   890.20
          (Kelvin)           1380.43  1499.69  1637.57  1797.24  1867.80
                             2087.51  2118.46  2133.96  2158.77  2209.87
                             4275.40  4403.05  4471.21  4525.98  4686.41
                             5162.78

 Zero-point correction=                           0.078310 (Hartree/Particle)
 Thermal correction to Energy=                    0.082886
 Thermal correction to Enthalpy=                  0.083830
 Thermal correction to Gibbs Free Energy=         0.052281
 Sum of electronic and zero-point Energies=           -134.492294
 Sum of electronic and thermal Energies=              -134.487718
 Sum of electronic and thermal Enthalpies=            -134.486773
 Sum of electronic and thermal Free Energies=         -134.518323

                     E (Thermal)             CV                S
                      KCal/Mol        Cal/Mol-Kelvin    Cal/Mol-Kelvin
 Total                   52.012             14.704             66.401
 Electronic               0.000              0.000              1.377
 Translational            0.889              2.981             37.274
 Rotational               0.889              2.981             22.020
 Vibrational             50.234              8.743              5.730
 Vibration     1          0.635              1.847              2.184
 Vibration     2          0.710              1.625              1.283
 Vibration     3          0.757              1.493              1.004
 Vibration     4          0.942              1.063              0.475
 Vibration     5          0.979              0.992              0.419

                           ! Non-Optimized Parameters !
 Normal termination of Gaussian 16 at Sat Sep 16 01:18:25 2023.
