 Gaussian 16, Revision B.01,

 ---------------------------------------
 # b3lyp/gen opt freq CPHF(Grid=OneStep)
 ---------------------------------------

 ------------------------------
 methyl amidogen, B3LYP/pcseg-2
 ------------------------------
 Symbolic Z-matrix:
 Charge =  0 Multiplicity = 2

 SCF Done:  E(UB3LYP) =  -95.2364460159     A.U. after   13 cycles
 Optimization completed.
    -- Stationary point found.
 Normal termination of Gaussian 16 at Fri Sep 29 16:57:25 2023.

 ------------------------------------------------------------------
 #N Geom=AllCheck Guess=TCheck SCRF=Check GenChk UB3LYP/ChkBas Freq
 ------------------------------------------------------------------

 Structure from the checkpoint file:  "ch3nh.chk"
 ------------------------------
 methyl amidogen, B3LYP/pcseg-2
 ------------------------------
 Charge =  0 Multiplicity = 2

 SCF Done:  E(UB3LYP) =  -95.2364460159     A.U. after    1 cycles

  Exact polarizability:  21.636   0.700  25.880  -0.000   0.000  19.288
 Approx polarizability:  28.396   0.654  32.049   0.000  -0.000  24.678

                      1                      2                      3
                     A"                     A"                     A'
 Frequencies --    249.6717               946.4829              1004.6917
 Red. masses --      1.1281                 1.2089                 1.2627
 Frc consts  --      0.0414                 0.6381                 0.7510
 IR Inten    --     59.2688                 0.0979                14.1549

                      4                      5                      6
                     A'                     A'                     A'
 Frequencies --   1043.1563              1332.7257              1390.2161
 Red. masses --      3.6608                 1.2825                 1.1323
 Frc consts  --      2.3471                 1.3421                 1.2894
 IR Inten    --     15.2305                 9.0720                11.0727

                      7                      8                      9
                     A"                     A'                     A'
 Frequencies --   1474.5645              1482.6093              2950.7390
 Red. masses --      1.0541                 1.0781                 1.0399
 Frc consts  --      1.3503                 1.3962                 5.3345
 IR Inten    --      7.9214                 3.6199                14.9553

                     10                     11                     12
                     A"                     A'                     A'
 Frequencies --   2982.9833              3093.8203              3388.8831
 Red. masses --      1.0952                 1.0942                 1.0739
 Frc consts  --      5.7417                 6.1705                 7.2664
 IR Inten    --     25.5248                27.8316                 6.8167

 - Thermochemistry -
 -------------------
 Temperature   298.150 Kelvin.  Pressure   1.00000 Atm.
 Atom     1 has atomic number  6 and mass  12.00000

 Molecular mass:    30.03437 amu.
 Principal axes and moments of inertia in atomic units:
                           1         2         3
     Eigenvalues --    14.37777  70.76826  74.09019
           X            0.06199   0.99808   0.00000
           Y            0.99808  -0.06199   0.00000
           Z            0.00000  -0.00000   1.00000
 This molecule is an asymmetric top.
 Rotational symmetry number  1.
 Rotational temperatures (Kelvin)      6.02415     1.22391     1.16903
 Rotational constants (GHZ):         125.52301    25.50213    24.35871
 Zero-point vibrational energy     127644.8 (Joules/Mol)
                                   30.50784 (Kcal/Mol)
 Warning -- explicit consideration of   1 degrees of freedom as
           vibrations may cause significant error
 Vibrational temperatures:    359.22  1361.78  1445.53  1500.87  1917.50
          (Kelvin)           2000.21  2121.57  2133.14  4245.46  4291.85
                             4451.32  4875.85

 Zero-point correction=                           0.048617 (Hartree/Particle)
 Thermal correction to Energy=                    0.052078
 Thermal correction to Enthalpy=                  0.053022
 Thermal correction to Gibbs Free Energy=         0.025199
 Sum of electronic and zero-point Energies=            -95.187829
 Sum of electronic and thermal Energies=               -95.184368
 Sum of electronic and thermal Enthalpies=             -95.183424
 Sum of electronic and thermal Free Energies=          -95.211247

                     E (Thermal)             CV                S
                      KCal/Mol        Cal/Mol-Kelvin    Cal/Mol-Kelvin
 Total                   32.679              9.273             58.559
 Electronic               0.000              0.000              1.377
 Translational            0.889              2.981             36.133
 Rotational               0.889              2.981             18.961
 Vibrational             30.902              3.312              2.088
 Vibration     1          0.662              1.763              1.733

 Optimization completed.
    -- Stationary point found.
 Normal termination of Gaussian 16 at Fri Sep 29 16:58:41 2023.
 Gaussian 16:  ES64L-G16RevB.01 20-Dec-2017

 ---------------------------------
 # rohf/gen geom=check guess=check
 ---------------------------------

 ---------------------------------
 methyl amidogen, ROHF/cc-pVTZ-F12
 ---------------------------------
 Structure from the checkpoint file:  "ch3nh.chk"
 Charge =  0 Multiplicity = 2

                         Standard orientation:
 ---------------------------------------------------------------------
 Center     Atomic      Atomic             Coordinates (Angstroms)
 Number     Number       Type             X           Y           Z
 ---------------------------------------------------------------------
      1          6           0       -0.059777   -0.624293    0.000000
      2          7           0       -0.059777    0.813006    0.000000
      3          1           0        0.918865    1.115192    0.000000
      4          1           0       -1.078635   -1.008325    0.000000
      5          1           0        0.468433   -1.026075    0.876344
      6          1           0        0.468433   -1.026075   -0.876344
 ---------------------------------------------------------------------

 SCF Done:  E(ROHF) =  -94.6321603097     A.U. after   13 cycles

 The electronic state is 2-A".
 Alpha  occ. eigenvalues --  -15.56442 -11.24997  -1.13947  -0.87439  -0.63486
 Alpha  occ. eigenvalues --   -0.57346  -0.55818  -0.43356  -0.09924
 Alpha virt. eigenvalues --    0.05476   0.06424   0.07338   0.07363   0.13223
 Alpha virt. eigenvalues --    0.13878   0.15059   0.21135   0.21277   0.23026
 Alpha virt. eigenvalues --    0.24170   0.25961   0.31322   0.34925   0.36185

 Mulliken charges and spin densities:
               1          2
     1  C   -0.081428   0.010800
     2  N   -0.384910   0.936457
     3  H    0.205587   0.019787
     4  H    0.105581   0.000047
     5  H    0.077586   0.016454
     6  H    0.077586   0.016454
 Sum of Mulliken charges =  -0.00000   1.00000

 Dipole moment (field-independent basis, Debye):
    X=              1.4668    Y=             -1.2629    Z=              0.0000  Tot=              1.9355
 Quadrupole moment (field-independent basis, Debye-Ang):
   XX=            -12.8782   YY=            -14.8442   ZZ=            -13.4878
   XY=              2.1323   XZ=             -0.0000   YZ=              0.0000

 Normal termination of Gaussian 16 at Fri Sep 29 16:58:50 2023.
