 Gaussian 16, Revision B.01,
 Gaussian 16:  ES64L-G16RevB.01 20-Dec-2017

 --------------------
 # b3lyp/gen opt freq
 --------------------

 --------------------------------
 methyl isocyanide, B3LYP/pcseg-2
 --------------------------------
 Symbolic Z-matrix:
 Charge =  0 Multiplicity = 1

 SCF Done:  E(RB3LYP) =  -132.773430683     A.U. after   11 cycles
 SCF Done:  E(RB3LYP) =  -132.773567972     A.U. after    8 cycles
 SCF Done:  E(RB3LYP) =  -132.773570612     A.U. after    7 cycles
 Optimization completed.
    -- Stationary point found.
 Normal termination of Gaussian 16 at Wed Jun 15 14:04:43 2022.

 ------------------------------------------------------------------
 #N Geom=AllCheck Guess=TCheck SCRF=Check GenChk RB3LYP/ChkBas Freq
 ------------------------------------------------------------------

 Structure from the checkpoint file:  "/wrk/irikura/Gau-5765.chk"
 --------------------------------
 methyl isocyanide, B3LYP/pcseg-2
 --------------------------------
 Charge =  0 Multiplicity = 1

                         Standard orientation:
 ---------------------------------------------------------------------
 Center     Atomic      Atomic             Coordinates (Angstroms)
 Number     Number       Type             X           Y           Z
 ---------------------------------------------------------------------
      1          6           0        0.000000    0.000000   -1.104969
      2          7           0        0.000000    0.000000    0.313028
      3          6           0        0.000000    0.000000    1.477439
      4          1           0       -0.000000    1.023811   -1.475339
      5          1           0        0.886646   -0.511905   -1.475339
      6          1           0       -0.886646   -0.511905   -1.475339
 ---------------------------------------------------------------------

 SCF Done:  E(RB3LYP) =  -132.773570612     A.U. after    1 cycles

 The electronic state is 1-A1.
 Alpha  occ. eigenvalues --  -14.35267 -10.24978 -10.20607  -0.96277  -0.78155
 Alpha  occ. eigenvalues --   -0.56507  -0.48595  -0.48595  -0.34883  -0.34883
 Alpha  occ. eigenvalues --   -0.31049
 Alpha virt. eigenvalues --    0.00159   0.01196   0.01196   0.07436   0.07436
 Alpha virt. eigenvalues --    0.07606   0.14083   0.14083   0.16778   0.18287
 Alpha virt. eigenvalues --    0.22963   0.22963   0.25659   0.31935   0.31935

 Mulliken charges:
               1
     1  C    0.114340
     2  N   -0.285963
     3  C   -0.008825
     4  H    0.060149
     5  H    0.060149
     6  H    0.060149
 Sum of Mulliken charges =  -0.00000

 Dipole moment (field-independent basis, Debye):
    X=              0.0000    Y=             -0.0000    Z=             -3.9062  Tot=              3.9062
 Quadrupole moment (field-independent basis, Debye-Ang):
   XX=            -17.9846   YY=            -17.9846   ZZ=            -21.8202
   XY=             -0.0000   XZ=             -0.0000   YZ=              0.0000

  Exact polarizability:  23.525  -0.000  23.525  -0.000   0.000  40.464
 Approx polarizability:  31.775  -0.000  31.775   0.000  -0.000  58.220

                      1                      2                      3
                      E                      E                     A1
 Frequencies --    279.5530               279.5530               956.9769
 Red. masses --      5.1470                 5.1470                 5.7737
 Frc consts  --      0.2370                 0.2370                 3.1154
 IR Inten    --      0.6231                 0.6231                13.0982

                      4                      5                      6
                      E                      E                     A1
 Frequencies --   1148.7826              1148.7828              1457.8207
 Red. masses --      1.3256                 1.3256                 1.1738
 Frc consts  --      1.0307                 1.0307                 1.4698
 IR Inten    --      0.0904                 0.0904                 4.2731

                      7                      8                      9
                      E                      E                     A1
 Frequencies --   1491.1612              1491.1614              2242.4102
 Red. masses --      1.0366                 1.0366                12.3443
 Frc consts  --      1.3580                 1.3580                36.5720
 IR Inten    --     10.5790                10.5793               132.5494

                     10                     11                     12
                     A1                      E                      E
 Frequencies --   3050.2617              3120.7172              3120.7174
 Red. masses --      1.0307                 1.1047                 1.1047
 Frc consts  --      5.6502                 6.3385                 6.3385
 IR Inten    --     16.7230                 5.6409                 5.6411

 - Thermochemistry -
 -------------------
 Temperature   298.150 Kelvin.  Pressure   1.00000 Atm.
 Atom     1 has atomic number  6 and mass  12.00000

 Molecular mass:    41.02655 amu.
 Principal axes and moments of inertia in atomic units:
                           1         2         3
     Eigenvalues --    11.31732 178.24196 178.24196
           X            0.00000   0.80000  -0.60000
           Y            0.00000   0.60000   0.80000
           Z            1.00000  -0.00000  -0.00000
 This molecule is a prolate symmetric top.
 Rotational symmetry number  3.
 Rotational temperatures (Kelvin)      7.65322     0.48593     0.48593
 Rotational constants (GHZ):         159.46723    10.12523    10.12523
 Zero-point vibrational energy     118357.9 (Joules/Mol)
                                   28.28822 (Kcal/Mol)
 Warning -- explicit consideration of   2 degrees of freedom as
           vibrations may cause significant error
 Vibrational temperatures:    402.21   402.21  1376.88  1652.84  1652.84
          (Kelvin)           2097.48  2145.45  2145.45  3226.33  4388.65
                             4490.02  4490.02

 Zero-point correction=                           0.045080 (Hartree/Particle)
 Thermal correction to Energy=                    0.048906
 Thermal correction to Enthalpy=                  0.049850
 Thermal correction to Gibbs Free Energy=         0.021952
 Sum of electronic and zero-point Energies=           -132.728490
 Sum of electronic and thermal Energies=              -132.724664
 Sum of electronic and thermal Enthalpies=            -132.723720
 Sum of electronic and thermal Free Energies=         -132.751619

                     E (Thermal)             CV                S
                      KCal/Mol        Cal/Mol-Kelvin    Cal/Mol-Kelvin
 Total                   30.689             10.539             58.718
 Electronic               0.000              0.000              0.000
 Translational            0.889              2.981             37.062
 Rotational               0.889              2.981             18.330
 Vibrational             28.912              4.577              3.325
 Vibration     1          0.680              1.711              1.536
 Vibration     2          0.680              1.711              1.536

 Optimization completed.
    -- Stationary point found.
 Normal termination of Gaussian 16 at Wed Jun 15 14:05:01 2022.
