 Gaussian 16, Revision B.01,
 Gaussian 16:  ES64L-G16RevB.01 20-Dec-2017

 --------------------
 # b3lyp/gen opt freq
 --------------------

 -----------------------------
 nitrosomethane, B3LYP/pcseg-2
 -----------------------------
 Symbolic Z-matrix:
 Charge =  0 Multiplicity = 1

 SCF Done:  E(RB3LYP) =  -169.869014675     A.U. after   12 cycles
 SCF Done:  E(RB3LYP) =  -169.869108235     A.U. after    8 cycles
 SCF Done:  E(RB3LYP) =  -169.869113150     A.U. after    8 cycles
 SCF Done:  E(RB3LYP) =  -169.869115888     A.U. after    7 cycles
 Optimization completed.
    -- Stationary point found.
 Normal termination of Gaussian 16 at Wed Jun 15 17:40:14 2022.

 ------------------------------------------------------------------
 #N Geom=AllCheck Guess=TCheck SCRF=Check GenChk RB3LYP/ChkBas Freq
 ------------------------------------------------------------------

 Structure from the checkpoint file:  "/wrk/irikura/Gau-7082.chk"
 -----------------------------
 nitrosomethane, B3LYP/pcseg-2
 -----------------------------
 Charge =  0 Multiplicity = 1

                         Standard orientation:
 ---------------------------------------------------------------------
 Center     Atomic      Atomic             Coordinates (Angstroms)
 Number     Number       Type             X           Y           Z
 ---------------------------------------------------------------------
      1          6           0       -0.943872   -0.574710    0.000000
      2          7           0        0.000000    0.564575    0.000000
      3          8           0        1.155677    0.242237    0.000000
      4          1           0       -0.422618   -1.531245    0.000000
      5          1           0       -1.579782   -0.455207    0.878896
      6          1           0       -1.579782   -0.455207   -0.878896
 ---------------------------------------------------------------------

 SCF Done:  E(RB3LYP) =  -169.869115888     A.U. after    1 cycles

 The electronic state is 1-A'.
 Alpha  occ. eigenvalues --  -19.19339 -14.44141 -10.21282  -1.17559  -0.80800
 Alpha  occ. eigenvalues --   -0.62943  -0.50434  -0.49643  -0.49363  -0.41075
 Alpha  occ. eigenvalues --   -0.40061  -0.24004
 Alpha virt. eigenvalues --   -0.09732   0.01572   0.06529   0.06571   0.07665
 Alpha virt. eigenvalues --    0.14069   0.15149   0.20178   0.26518   0.28021
 Alpha virt. eigenvalues --    0.29496   0.31833   0.32591   0.32673   0.37230

 Mulliken charges:
               1
     1  C    0.057690
     2  N    0.051848
     3  O   -0.243048
     4  H    0.038404
     5  H    0.047553
     6  H    0.047553
 Sum of Mulliken charges =  -0.00000

 Dipole moment (field-independent basis, Debye):
    X=             -2.0629    Y=             -1.4081    Z=              0.0000  Tot=              2.4976
 Quadrupole moment (field-independent basis, Debye-Ang):
   XX=            -18.6143   YY=            -19.4378   ZZ=            -16.8242
   XY=              0.4513   XZ=              0.0000   YZ=              0.0000

  Exact polarizability:  33.442   2.574  24.847   0.000   0.000  20.099
 Approx polarizability:  51.375   1.431  31.919   0.000  -0.000  27.785

                      1                      2                      3
                     A"                     A'                     A'
 Frequencies --    166.4245               578.0539               843.0927
 Red. masses --      1.3887                 2.9054                 3.9368
 Frc consts  --      0.0227                 0.5720                 1.6487
 IR Inten    --      1.2680                 1.5978                27.9704

                      4                      5                      6
                     A"                     A'                     A'
 Frequencies --    971.9120              1152.3648              1371.9636
 Red. masses --      1.2803                 1.8310                 1.1815
 Frc consts  --      0.7126                 1.4326                 1.3103
 IR Inten    --      2.7481                19.8191                27.3338

                      7                      8                      9
                     A"                     A'                     A'
 Frequencies --   1449.8662              1451.8791              1659.5799
 Red. masses --      1.0527                 1.0749                10.4334
 Frc consts  --      1.3038                 1.3350                16.9306
 IR Inten    --     12.4356                26.8374                87.9366

                     10                     11                     12
                     A'                     A"                     A'
 Frequencies --   3022.4947              3102.3926              3131.4099
 Red. masses --      1.0283                 1.1003                 1.1096
 Frc consts  --      5.5347                 6.2398                 6.4104
 IR Inten    --      1.9834                 2.2116                11.6866

 - Thermochemistry -
 -------------------
 Temperature   298.150 Kelvin.  Pressure   1.00000 Atm.
 Atom     1 has atomic number  6 and mass  12.00000

 Molecular mass:    45.02146 amu.
 Principal axes and moments of inertia in atomic units:
                           1         2         3
     Eigenvalues --    28.94970 157.15274 174.98211
           X            0.92073  -0.39020   0.00000
           Y            0.39020   0.92073   0.00000
           Z            0.00000   0.00000   1.00000
 This molecule is an asymmetric top.
 Rotational symmetry number  1.
 Rotational temperatures (Kelvin)      2.99188     0.55114     0.49499
 Rotational constants (GHZ):          62.34059    11.48399    10.31386
 Zero-point vibrational energy     113055.7 (Joules/Mol)
                                   27.02096 (Kcal/Mol)
 Warning -- explicit consideration of   2 degrees of freedom as
           vibrations may cause significant error
 Vibrational temperatures:    239.45   831.69  1213.02  1398.36  1658.00
          (Kelvin)           1973.95  2086.03  2088.93  2387.77  4348.70
                             4463.65  4505.40

 Zero-point correction=                           0.043061 (Hartree/Particle)
 Thermal correction to Energy=                    0.046832
 Thermal correction to Enthalpy=                  0.047776
 Thermal correction to Gibbs Free Energy=         0.018322
 Sum of electronic and zero-point Energies=           -169.826055
 Sum of electronic and thermal Energies=              -169.822284
 Sum of electronic and thermal Enthalpies=            -169.821340
 Sum of electronic and thermal Free Energies=         -169.850794

                     E (Thermal)             CV                S
                      KCal/Mol        Cal/Mol-Kelvin    Cal/Mol-Kelvin
 Total                   29.388             10.491             61.992
 Electronic               0.000              0.000              0.000
 Translational            0.889              2.981             37.339
 Rotational               0.889              2.981             21.303
 Vibrational             27.610              4.529              3.350
 Vibration     1          0.624              1.884              2.475
 Vibration     2          0.935              1.079              0.489

 Optimization completed.
    -- Stationary point found.
 Normal termination of Gaussian 16 at Wed Jun 15 17:40:34 2022.
