 Gaussian 16, Revision B.01,

 ---------------------------------------
 # b3lyp/gen opt freq CPHF(Grid=OneStep)
 ---------------------------------------

 ---------------------------------
 methylamino methyl, B3LYP/pcseg-2
 ---------------------------------
 Symbolic Z-matrix:
 Charge =  0 Multiplicity = 2

 SCF Done:  E(UB3LYP) =  -134.570603545     A.U. after   15 cycles
 Optimization completed.
    -- Stationary point found.
 Normal termination of Gaussian 16 at Sat Sep 30 21:20:07 2023.

 ------------------------------------------------------------------
 #N Geom=AllCheck Guess=TCheck SCRF=Check GenChk UB3LYP/ChkBas Freq
 ------------------------------------------------------------------

 Structure from the checkpoint file:  "ch3nhch2.chk"
 ---------------------------------
 methylamino methyl, B3LYP/pcseg-2
 ---------------------------------
 Charge =  0 Multiplicity = 2

 SCF Done:  E(UB3LYP) =  -134.570603545     A.U. after    1 cycles

  Exact polarizability:  45.366  -1.518  34.040  -0.329  -0.692  32.430
 Approx polarizability:  52.989  -2.228  46.221   0.140  -0.861  42.292

                      1                      2                      3
                      A                      A                      A
 Frequencies --    194.5801               325.4183               389.0980
 Red. masses --      1.1109                 1.2718                 1.9610
 Frc consts  --      0.0248                 0.0794                 0.1749
 IR Inten    --      0.1304                18.5466                18.2430

                      4                      5                      6
                      A                      A                      A
 Frequencies --    585.4442               618.7198               959.4487
 Red. masses --      1.3129                 1.2116                 2.6743
 Frc consts  --      0.2651                 0.2733                 1.4504
 IR Inten    --     69.5399                89.2045                 8.9973

                      7                      8                      9
                      A                      A                      A
 Frequencies --   1042.3367              1138.1699              1249.1461
 Red. masses --      1.1706                 1.3030                 1.9487
 Frc consts  --      0.7493                 0.9945                 1.7915
 IR Inten    --      3.6572                 7.9463                13.0859

                     10                     11                     12
                      A                      A                      A
 Frequencies --   1298.1840              1450.8896              1472.4020
 Red. masses --      2.2391                 1.1426                 1.1951
 Frc consts  --      2.2233                 1.4171                 1.5265
 IR Inten    --     24.0421                 0.2728                10.1184

                     13                     14                     15
                      A                      A                      A
 Frequencies --   1483.1744              1500.4215              1535.9365
 Red. masses --      1.0502                 1.1324                 1.3401
 Frc consts  --      1.3612                 1.5021                 1.8627
 IR Inten    --     10.9812                 2.2650                26.1090

                     16                     17                     18
                      A                      A                      A
 Frequencies --   2971.5579              3060.2708              3107.6407
 Red. masses --      1.0562                 1.0783                 1.1014
 Frc consts  --      5.4950                 5.9497                 6.2670
 IR Inten    --     95.7447                32.2806                21.7405

                     19                     20                     21
                      A                      A                      A
 Frequencies --   3145.7167              3257.2189              3588.3085
 Red. masses --      1.0491                 1.1213                 1.0758
 Frc consts  --      6.1164                 7.0092                 8.1610
 IR Inten    --     13.5696                12.5390                11.6391

 - Thermochemistry -
 -------------------
 Temperature   298.150 Kelvin.  Pressure   1.00000 Atm.
 Atom     1 has atomic number  7 and mass  14.00307

 Molecular mass:    44.05002 amu.
 Principal axes and moments of inertia in atomic units:
                           1         2         3
     Eigenvalues --    41.61693 184.95197 212.67103
           X            0.99996   0.00719  -0.00591
           Y           -0.00675   0.99742   0.07146
           Z            0.00641  -0.07141   0.99743
 This molecule is an asymmetric top.
 Rotational symmetry number  1.
 Rotational temperatures (Kelvin)      2.08122     0.46830     0.40727
 Rotational constants (GHZ):          43.36556     9.75789     8.48607
 Zero-point vibrational energy     205602.7 (Joules/Mol)
                                   49.14022 (Kcal/Mol)
 Warning -- explicit consideration of   5 degrees of freedom as
           vibrations may cause significant error
 Vibrational temperatures:    279.96   468.20   559.83   842.32   890.20
          (Kelvin)           1380.43  1499.69  1637.57  1797.24  1867.80
                             2087.51  2118.46  2133.96  2158.77  2209.87
                             4275.41  4403.05  4471.20  4525.98  4686.41
                             5162.78

 Zero-point correction=                           0.078310 (Hartree/Particle)
 Thermal correction to Energy=                    0.082886
 Thermal correction to Enthalpy=                  0.083830
 Thermal correction to Gibbs Free Energy=         0.052281
 Sum of electronic and zero-point Energies=           -134.492294
 Sum of electronic and thermal Energies=              -134.487718
 Sum of electronic and thermal Enthalpies=            -134.486773
 Sum of electronic and thermal Free Energies=         -134.518323

                     E (Thermal)             CV                S
                      KCal/Mol        Cal/Mol-Kelvin    Cal/Mol-Kelvin
 Total                   52.012             14.704             66.401
 Electronic               0.000              0.000              1.377
 Translational            0.889              2.981             37.274
 Rotational               0.889              2.981             22.020
 Vibrational             50.234              8.743              5.730
 Vibration     1          0.635              1.847              2.184
 Vibration     2          0.710              1.625              1.283
 Vibration     3          0.757              1.493              1.004
 Vibration     4          0.942              1.063              0.475
 Vibration     5          0.979              0.992              0.419

                           ! Non-Optimized Parameters !
 Normal termination of Gaussian 16 at Sat Sep 30 21:26:41 2023.
 Gaussian 16:  ES64L-G16RevB.01 20-Dec-2017

 ---------------------------------
 # rohf/gen geom=check guess=check
 ---------------------------------

 ------------------------------------
 methylamino methyl, ROHF/cc-pVTZ-F12
 ------------------------------------
 Structure from the checkpoint file:  "ch3nhch2.chk"
 Charge =  0 Multiplicity = 2

                         Standard orientation:
 ---------------------------------------------------------------------
 Center     Atomic      Atomic             Coordinates (Angstroms)
 Number     Number       Type             X           Y           Z
 ---------------------------------------------------------------------
      1          7           0        0.093447    0.468188   -0.124419
      2          6           0       -1.190405   -0.185777    0.030835
      3          6           0        1.255806   -0.250483    0.079915
      4          1           0        0.117712    1.419703    0.205112
      5          1           0       -1.385542   -0.507225    1.061678
      6          1           0       -1.986650    0.487145   -0.283698
      7          1           0       -1.224165   -1.068914   -0.608472
      8          1           0        2.184634    0.297853    0.050858
      9          1           0        1.247480   -1.288316   -0.219044
 ---------------------------------------------------------------------

 SCF Done:  E(ROHF) =  -133.674352901     A.U. after   17 cycles

 The electronic state is 2-A.
 Alpha  occ. eigenvalues --  -15.55462 -11.24853 -11.22716  -1.21165  -0.94186
 Alpha  occ. eigenvalues --   -0.82586  -0.67368  -0.61024  -0.58910  -0.53244
 Alpha  occ. eigenvalues --   -0.52558  -0.41682  -0.03486
 Alpha virt. eigenvalues --    0.05311   0.05664   0.06239   0.07256   0.08675
 Alpha virt. eigenvalues --    0.09259   0.10516   0.13825   0.15825   0.17071
 Alpha virt. eigenvalues --    0.19696   0.21000   0.22218   0.23548   0.24649

 Mulliken charges and spin densities:
               1          2
     1  N   -0.472301   0.087240
     2  C   -0.088116  -0.008961
     3  C   -0.198348   0.865425
     4  H    0.239301   0.003049
     5  H    0.079236   0.013151
     6  H    0.095954   0.000212
     7  H    0.094371   0.000830
     8  H    0.131089   0.019380
     9  H    0.118814   0.019672
 Sum of Mulliken charges =  -0.00000   1.00000

 Dipole moment (field-independent basis, Debye):
    X=             -0.7088    Y=              0.5034    Z=              0.2220  Tot=              0.8973
 Quadrupole moment (field-independent basis, Debye-Ang):
   XX=            -19.5363   YY=            -18.1897   ZZ=            -22.7440
   XY=              0.3986   XZ=             -0.3160   YZ=              1.4824

 Normal termination of Gaussian 16 at Sat Sep 30 21:28:17 2023.
