 Gaussian 16, Revision B.01,
 Gaussian 16:  ES64L-G16RevB.01 20-Dec-2017

 --------------------
 # b3lyp/gen opt freq
 --------------------

 ---------------------------------
 methylamino methyl, B3LYP/pcseg-2
 ---------------------------------
 Symbolic Z-matrix:
 Charge =  0 Multiplicity = 2

 SCF Done:  E(UB3LYP) =  -134.570331726     A.U. after   15 cycles
 SCF Done:  E(UB3LYP) =  -134.570547645     A.U. after   11 cycles
 SCF Done:  E(UB3LYP) =  -134.570594890     A.U. after   10 cycles
 SCF Done:  E(UB3LYP) =  -134.570600727     A.U. after    9 cycles
 SCF Done:  E(UB3LYP) =  -134.570602484     A.U. after    8 cycles
 SCF Done:  E(UB3LYP) =  -134.570603389     A.U. after    8 cycles
 SCF Done:  E(UB3LYP) =  -134.570603551     A.U. after    8 cycles
 SCF Done:  E(UB3LYP) =  -134.570603607     A.U. after    7 cycles
 Optimization completed.
    -- Stationary point found.
 Normal termination of Gaussian 16 at Thu Jun 16 10:39:46 2022.

 ------------------------------------------------------------------
 #N Geom=AllCheck Guess=TCheck SCRF=Check GenChk UB3LYP/ChkBas Freq
 ------------------------------------------------------------------

 Structure from the checkpoint file:  "/wrk/irikura/Gau-5947.chk"
 ---------------------------------
 methylamino methyl, B3LYP/pcseg-2
 ---------------------------------
 Charge =  0 Multiplicity = 2

                         Standard orientation:
 ---------------------------------------------------------------------
 Center     Atomic      Atomic             Coordinates (Angstroms)
 Number     Number       Type             X           Y           Z
 ---------------------------------------------------------------------
      1          7           0        0.093491    0.468287   -0.124542
      2          6           0       -1.190428   -0.185837    0.030859
      3          6           0        1.255726   -0.250496    0.079928
      4          1           0        0.117736    1.419625    0.205512
      5          1           0       -1.384456   -0.508786    1.061375
      6          1           0       -1.986760    0.487770   -0.281846
      7          1           0       -1.224903   -1.067882   -0.609855
      8          1           0        2.184699    0.297594    0.050879
      9          1           0        1.247461   -1.288332   -0.218990
 ---------------------------------------------------------------------

 SCF Done:  E(UB3LYP) =  -134.570603607     A.U. after    1 cycles

 The electronic state is 2-A.
 Alpha  occ. eigenvalues --  -14.33104 -10.19924 -10.17640  -0.92708  -0.71023
 Alpha  occ. eigenvalues --   -0.62725  -0.51045  -0.45937  -0.44100  -0.39120
 Alpha  occ. eigenvalues --   -0.38405  -0.31817  -0.14500
 Alpha virt. eigenvalues --    0.01220   0.03670   0.05153   0.07663   0.08073
 Alpha virt. eigenvalues --    0.09938   0.12847   0.15533   0.17377   0.19219
 Alpha virt. eigenvalues --    0.20818   0.25646   0.27122   0.29193   0.30899

  Beta  occ. eigenvalues --  -14.32531 -10.19933 -10.16502  -0.91541  -0.70277
  Beta  occ. eigenvalues --   -0.61052  -0.50448  -0.45213  -0.43215  -0.38947
  Beta  occ. eigenvalues --   -0.37749  -0.27821
  Beta virt. eigenvalues --   -0.02427   0.01339   0.03747   0.05371   0.07811
  Beta virt. eigenvalues --    0.08344   0.10100   0.13021   0.15638   0.17868
  Beta virt. eigenvalues --    0.20197   0.21987   0.26959   0.27459   0.29854

 Mulliken charges and spin densities:
               1          2
     1  N   -0.263230   0.164734
     2  C    0.080741  -0.013707
     3  C   -0.086784   0.857913
     4  H    0.118561  -0.002628
     5  H    0.023291   0.037465
     6  H    0.026040  -0.000812
     7  H    0.033445   0.004693
     8  H    0.036452  -0.022173
     9  H    0.031484  -0.025485
 Sum of Mulliken charges =  -0.00000   1.00000

 Dipole moment (field-independent basis, Debye):
    X=             -1.0806    Y=              0.7414    Z=              0.0780  Tot=              1.3128
 Quadrupole moment (field-independent basis, Debye-Ang):
   XX=            -20.0558   YY=            -18.2418   ZZ=            -23.0255
   XY=              0.5173   XZ=             -0.3245   YZ=              1.4216

  Exact polarizability:  45.363  -1.516  34.041  -0.326  -0.692  32.427
 Approx polarizability:  52.985  -2.226  46.222   0.145  -0.863  42.292

                      1                      2                      3
                      A                      A                      A
 Frequencies --    194.0328               325.2957               388.9993
 Red. masses --      1.1105                 1.2711                 1.9636
 Frc consts  --      0.0246                 0.0792                 0.1751
 IR Inten    --      0.1316                18.4319                18.2948

                      4                      5                      6
                      A                      A                      A
 Frequencies --    585.6242               619.0328               959.2481
 Red. masses --      1.3123                 1.2122                 2.6753
 Frc consts  --      0.2652                 0.2737                 1.4504
 IR Inten    --     69.9265                88.9290                 9.0095

                      7                      8                      9
                      A                      A                      A
 Frequencies --   1042.2268              1138.0641              1249.0325
 Red. masses --      1.1705                 1.3030                 1.9490
 Frc consts  --      0.7491                 0.9943                 1.7915
 IR Inten    --      3.6371                 7.9265                13.0777

                     10                     11                     12
                      A                      A                      A
 Frequencies --   1298.1654              1450.8148              1472.3143
 Red. masses --      2.2395                 1.1426                 1.1949
 Frc consts  --      2.2236                 1.4170                 1.5261
 IR Inten    --     24.0335                 0.2763                10.1161

                     13                     14                     15
                      A                      A                      A
 Frequencies --   1483.1289              1500.3968              1535.8537
 Red. masses --      1.0502                 1.1324                 1.3399
 Frc consts  --      1.3611                 1.5020                 1.8622
 IR Inten    --     10.9555                 2.2622                26.0986

                     16                     17                     18
                      A                      A                      A
 Frequencies --   2972.1197              3060.6291              3108.0316
 Red. masses --      1.0561                 1.0784                 1.1014
 Frc consts  --      5.4966                 5.9518                 6.2686
 IR Inten    --     95.5889                32.2758                21.7164

                     19                     20                     21
                      A                      A                      A
 Frequencies --   3145.8029              3257.2016              3588.2297
 Red. masses --      1.0491                 1.1213                 1.0758
 Frc consts  --      6.1168                 7.0091                 8.1606
 IR Inten    --     13.5750                12.5540                11.6250

 - Thermochemistry -
 -------------------
 Temperature   298.150 Kelvin.  Pressure   1.00000 Atm.
 Atom     1 has atomic number  7 and mass  14.00307

 Molecular mass:    44.05002 amu.
 Principal axes and moments of inertia in atomic units:
                           1         2         3
     Eigenvalues --    41.62374 184.94616 212.66824
           X            0.99996   0.00717  -0.00591
           Y           -0.00673   0.99742   0.07152
           Z            0.00640  -0.07148   0.99742
 This molecule is an asymmetric top.
 Rotational symmetry number  1.
 Rotational temperatures (Kelvin)      2.08088     0.46832     0.40727
 Rotational constants (GHZ):          43.35846     9.75820     8.48618
 Zero-point vibrational energy     205603.6 (Joules/Mol)
                                   49.14045 (Kcal/Mol)
 Warning -- explicit consideration of   5 degrees of freedom as
           vibrations may cause significant error
 Vibrational temperatures:    279.17   468.03   559.68   842.58   890.65
          (Kelvin)           1380.14  1499.53  1637.42  1797.08  1867.77
                             2087.40  2118.33  2133.89  2158.74  2209.75
                             4276.22  4403.56  4471.76  4526.11  4686.39
                             5162.66

 Zero-point correction=                           0.078310 (Hartree/Particle)
 Thermal correction to Energy=                    0.082887
 Thermal correction to Enthalpy=                  0.083832
 Thermal correction to Gibbs Free Energy=         0.052279
 Sum of electronic and zero-point Energies=           -134.492293
 Sum of electronic and thermal Energies=              -134.487716
 Sum of electronic and thermal Enthalpies=            -134.486772
 Sum of electronic and thermal Free Energies=         -134.518324

                     E (Thermal)             CV                S
                      KCal/Mol        Cal/Mol-Kelvin    Cal/Mol-Kelvin
 Total                   52.013             14.705             66.407
 Electronic               0.000              0.000              1.377
 Translational            0.889              2.981             37.274
 Rotational               0.889              2.981             22.020
 Vibrational             50.235              8.743              5.735
 Vibration     1          0.635              1.848              2.189
 Vibration     2          0.709              1.625              1.283
 Vibration     3          0.757              1.494              1.004
 Vibration     4          0.943              1.062              0.475
 Vibration     5          0.979              0.992              0.418

 Optimization completed.
    -- Stationary point found.
 Normal termination of Gaussian 16 at Thu Jun 16 10:41:29 2022.
