 Gaussian 16, Revision B.01,
 Gaussian 16:  ES64L-G16RevB.01 20-Dec-2017

 --------------------
 # b3lyp/gen opt freq
 --------------------

 ----------------------------
 methylperoxyl, B3LYP/pcseg-2
 ----------------------------
 Symbolic Z-matrix:
 Charge =  0 Multiplicity = 2

 SCF Done:  E(UB3LYP) =  -190.301148088     A.U. after   15 cycles
 SCF Done:  E(UB3LYP) =  -190.301202898     A.U. after   10 cycles
 SCF Done:  E(UB3LYP) =  -190.301206022     A.U. after    9 cycles
 Optimization completed.
    -- Stationary point found.
 Normal termination of Gaussian 16 at Wed Jun 15 11:27:03 2022.

 ------------------------------------------------------------------
 #N Geom=AllCheck Guess=TCheck SCRF=Check GenChk UB3LYP/ChkBas Freq
 ------------------------------------------------------------------

 Structure from the checkpoint file:  "/wrk/irikura/Gau-10052.chk"
 ----------------------------
 methylperoxyl, B3LYP/pcseg-2
 ----------------------------
 Charge =  0 Multiplicity = 2

                         Standard orientation:
 ---------------------------------------------------------------------
 Center     Atomic      Atomic             Coordinates (Angstroms)
 Number     Number       Type             X           Y           Z
 ---------------------------------------------------------------------
      1          6           0        1.000942   -0.478709    0.000000
      2          8           0        0.000000    0.564213    0.000000
      3          8           0       -1.216126    0.061604    0.000000
      4          1           0        1.957652    0.036459    0.000000
      5          1           0        0.882851   -1.085372    0.894782
      6          1           0        0.882851   -1.085372   -0.894782
 ---------------------------------------------------------------------

 SCF Done:  E(UB3LYP) =  -190.301206022     A.U. after    1 cycles

 The electronic state is 2-A".
 Alpha  occ. eigenvalues --  -19.25281 -19.20082 -10.24419  -1.20227  -0.89045
 Alpha  occ. eigenvalues --   -0.69831  -0.53096  -0.52741  -0.51123  -0.42477
 Alpha  occ. eigenvalues --   -0.41643  -0.29337  -0.29279
 Alpha virt. eigenvalues --    0.01350   0.04249   0.06291   0.07009   0.10530
 Alpha virt. eigenvalues --    0.15820   0.16594   0.24316   0.29157   0.30685
 Alpha virt. eigenvalues --    0.32100   0.32120   0.33871   0.34481   0.39072

  Beta  occ. eigenvalues --  -19.24248 -19.18089 -10.24462  -1.17575  -0.85835
  Beta  occ. eigenvalues --   -0.68567  -0.51258  -0.50479  -0.49292  -0.41041
  Beta  occ. eigenvalues --   -0.37564  -0.27615
  Beta virt. eigenvalues --   -0.12263   0.01391   0.04720   0.06347   0.07260
  Beta virt. eigenvalues --    0.12006   0.16052   0.16690   0.24661   0.29351
  Beta virt. eigenvalues --    0.30877   0.32192   0.32251   0.34947   0.36143

 Mulliken charges and spin densities:
               1          2
     1  C    0.152211  -0.019199
     2  O   -0.092553   0.291871
     3  O   -0.198422   0.696256
     4  H    0.036069  -0.001865
     5  H    0.051348   0.016469
     6  H    0.051348   0.016469
 Sum of Mulliken charges =   0.00000   1.00000

 Dipole moment (field-independent basis, Debye):
    X=              2.6017    Y=             -1.1534    Z=              0.0000  Tot=              2.8459
 Quadrupole moment (field-independent basis, Debye-Ang):
   XX=            -17.9550   YY=            -18.2514   ZZ=            -17.0967
   XY=             -0.4053   XZ=              0.0000   YZ=              0.0000

  Exact polarizability:  31.916  -0.357  20.468   0.000   0.000  18.526
 Approx polarizability:  43.671   2.558  27.427  -0.000   0.000  23.940

                      1                      2                      3
                     A"                     A'                     A'
 Frequencies --    130.9698               491.6022               916.3209
 Red. masses --      1.3263                 3.6978                 5.2183
 Frc consts  --      0.0134                 0.5265                 2.5815
 IR Inten    --      0.1440                 6.6866                13.3788

                      4                      5                      6
                     A"                     A'                     A'
 Frequencies --   1128.5022              1154.4623              1219.1146
 Red. masses --      1.2455                 3.1216                 2.3641
 Frc consts  --      0.9345                 2.4513                 2.0702
 IR Inten    --      0.7045                 1.8295                10.1722

                      7                      8                      9
                     A'                     A"                     A'
 Frequencies --   1444.5031              1471.5461              1482.8714
 Red. masses --      1.1652                 1.0475                 1.0467
 Frc consts  --      1.4325                 1.3365                 1.3560
 IR Inten    --      1.3465                 9.1804                 9.6695

                     10                     11                     12
                     A'                     A"                     A'
 Frequencies --   3054.7800              3143.9233              3158.6000
 Red. masses --      1.0267                 1.1085                 1.1074
 Frc consts  --      5.6446                 6.4558                 6.5097
 IR Inten    --     13.6476                10.9219                 7.6495

 - Thermochemistry -
 -------------------
 Temperature   298.150 Kelvin.  Pressure   1.00000 Atm.
 Atom     1 has atomic number  6 and mass  12.00000

 Molecular mass:    47.01330 amu.
 Principal axes and moments of inertia in atomic units:
                           1         2         3
     Eigenvalues --    34.02367 159.64715 182.14485
           X            0.96721   0.25399   0.00000
           Y           -0.25399   0.96721   0.00000
           Z           -0.00000   0.00000   1.00000
 This molecule is an asymmetric top.
 Rotational symmetry number  1.
 Rotational temperatures (Kelvin)      2.54570     0.54253     0.47552
 Rotational constants (GHZ):          53.04370    11.30456     9.90827
 Zero-point vibrational energy     112432.2 (Joules/Mol)
                                   26.87194 (Kcal/Mol)
 Warning -- explicit consideration of   2 degrees of freedom as
           vibrations may cause significant error
 Vibrational temperatures:    188.44   707.31  1318.38  1623.66  1661.01
          (Kelvin)           1754.03  2078.32  2117.23  2133.52  4395.15
                             4523.40  4544.52

 Zero-point correction=                           0.042823 (Hartree/Particle)
 Thermal correction to Energy=                    0.046689
 Thermal correction to Enthalpy=                  0.047633
 Thermal correction to Gibbs Free Energy=         0.017086
 Sum of electronic and zero-point Energies=           -190.258383
 Sum of electronic and thermal Energies=              -190.254517
 Sum of electronic and thermal Enthalpies=            -190.253573
 Sum of electronic and thermal Free Energies=         -190.284120

                     E (Thermal)             CV                S
                      KCal/Mol        Cal/Mol-Kelvin    Cal/Mol-Kelvin
 Total                   29.298             10.570             64.292
 Electronic               0.000              0.000              1.377
 Translational            0.889              2.981             37.468
 Rotational               0.889              2.981             21.519
 Vibrational             27.520              4.608              3.926
 Vibration     1          0.612              1.922              2.932
 Vibration     2          0.847              1.269              0.679

 Optimization completed.
    -- Stationary point found.
 Normal termination of Gaussian 16 at Wed Jun 15 11:31:02 2022.
