 Gaussian 16, Revision B.01,

 -----------------------------------------------
 # b3lyp/gen opt freq CPHF(Grid=OneStep) scf=xqc
 -----------------------------------------------

 -----------------------
 methoxyl, B3LYP/pcseg-2
 -----------------------
 Symbolic Z-matrix:
 Charge =  0 Multiplicity = 2

 SCF Done:  E(UB3LYP) =  -115.104856349     A.U. after   13 cycles
 SCF Done:  E(UB3LYP) =  -115.104873872     A.U. after    9 cycles
 Optimization completed.
    -- Stationary point found.
 Normal termination of Gaussian 16 at Tue Oct  3 16:34:09 2023.

 ------------------------------------------------------------------
 #N Geom=AllCheck Guess=TCheck SCRF=Check GenChk UB3LYP/ChkBas Freq
 ------------------------------------------------------------------

 Structure from the checkpoint file:  "ch3o.chk"
 -----------------------
 methoxyl, B3LYP/pcseg-2
 -----------------------
 Charge =  0 Multiplicity = 2

 SCF Done:  E(UB3LYP) =  -115.104873872     A.U. after    1 cycles

  Exact polarizability:  16.139  -0.163  21.413   0.000   0.000  18.615
 Approx polarizability:  20.683  -0.721  28.511   0.000   0.000  20.858

                      1                      2                      3
                     A"                     A'                     A'
 Frequencies --    681.2901               957.8384              1105.0783
 Red. masses --      1.3258                 1.5344                 3.9836
 Frc consts  --      0.3626                 0.8294                 2.8663
 IR Inten    --     79.2608                 0.6195                 9.4147

                      4                      5                      6
                     A"                     A'                     A'
 Frequencies --   1351.4468              1364.3268              1512.4763
 Red. masses --      1.0278                 1.0943                 1.1100
 Frc consts  --      1.1060                 1.2001                 1.4961
 IR Inten    --     15.8675                22.1121                 5.8004

                      7                      8                      9
                     A'                     A'                     A"
 Frequencies --   2892.5825              2967.1554              3009.7084
 Red. masses --      1.0477                 1.0672                 1.1011
 Frc consts  --      5.1650                 5.5359                 5.8768
 IR Inten    --      0.6187                40.1450                29.5176

 - Thermochemistry -
 -------------------
 Temperature   298.150 Kelvin.  Pressure   1.00000 Atm.
 Atom     1 has atomic number  8 and mass  15.99491

 Molecular mass:    31.01839 amu.
 Principal axes and moments of inertia in atomic units:
                           1         2         3
     Eigenvalues --    11.41291  64.24552  64.69734
           X           -0.00395   0.00000   0.99999
           Y            0.99999   0.00000   0.00395
           Z           -0.00000   1.00000  -0.00000
 This molecule is an asymmetric top.
 Rotational symmetry number  1.
 Rotational temperatures (Kelvin)      7.58912     1.34817     1.33876
 Rotational constants (GHZ):         158.13151    28.09132    27.89514
 Zero-point vibrational energy      94755.6 (Joules/Mol)
                                   22.64714 (Kcal/Mol)
 Vibrational temperatures:    980.22  1378.12  1589.96  1944.43  1962.96
          (Kelvin)           2176.12  4161.78  4269.07  4330.30

 Zero-point correction=                           0.036091 (Hartree/Particle)
 Thermal correction to Energy=                    0.039134
 Thermal correction to Enthalpy=                  0.040078
 Thermal correction to Gibbs Free Energy=         0.013156
 Sum of electronic and zero-point Energies=           -115.068783
 Sum of electronic and thermal Energies=              -115.065740
 Sum of electronic and thermal Enthalpies=            -115.064796
 Sum of electronic and thermal Free Energies=         -115.091718

                     E (Thermal)             CV                S
                      KCal/Mol        Cal/Mol-Kelvin    Cal/Mol-Kelvin
 Total                   24.557              7.845             56.662
 Electronic               0.000              0.000              1.377
 Translational            0.889              2.981             36.229
 Rotational               0.889              2.981             18.501
 Vibrational             22.779              1.883              0.555

 Optimization completed.
    -- Stationary point found.
 Normal termination of Gaussian 16 at Tue Oct  3 16:35:05 2023.
 Gaussian 16:  ES64L-G16RevB.01 20-Dec-2017

 ---------------------------------
 # rohf/gen geom=check guess=check
 ---------------------------------

 --------------------------
 methoxyl, ROHF/cc-pVTZ-F12
 --------------------------
 Structure from the checkpoint file:  "ch3o.chk"
 Charge =  0 Multiplicity = 2

                         Standard orientation:
 ---------------------------------------------------------------------
 Center     Atomic      Atomic             Coordinates (Angstroms)
 Number     Number       Type             X           Y           Z
 ---------------------------------------------------------------------
      1          8           0       -0.011219    0.789804   -0.000000
      2          6           0       -0.011219   -0.573015    0.000000
      3          1           0        1.056373   -0.865682    0.000000
      4          1           0       -0.449655   -1.007327    0.907836
      5          1           0       -0.449655   -1.007327   -0.907836
 ---------------------------------------------------------------------

 SCF Done:  E(ROHF) =  -114.468666089     A.U. after   16 cycles

 The electronic state is 2-A'.
 Alpha  occ. eigenvalues --  -20.59522 -11.28267  -1.32184  -0.90305  -0.64638
 Alpha  occ. eigenvalues --   -0.60866  -0.59204  -0.46052  -0.14374
 Alpha virt. eigenvalues --    0.05459   0.06999   0.07013   0.07267   0.16159
 Alpha virt. eigenvalues --    0.17947   0.18325   0.20681   0.21668   0.23683
 Alpha virt. eigenvalues --    0.27259   0.31588   0.34002   0.34441   0.46449

 Mulliken charges and spin densities:
               1          2
     1  O   -0.270424   0.941370
     2  C    0.026533   0.021867
     3  H    0.084296   0.026350
     4  H    0.079798   0.005207
     5  H    0.079798   0.005207
 Sum of Mulliken charges =  -0.00000   1.00000

 Dipole moment (field-independent basis, Debye):
    X=              0.1088    Y=             -1.8668    Z=             -0.0000  Tot=              1.8699
 Quadrupole moment (field-independent basis, Debye-Ang):
   XX=            -11.6748   YY=            -13.6980   ZZ=            -12.6675
   XY=             -0.1409   XZ=              0.0000   YZ=              0.0000

 Normal termination of Gaussian 16 at Tue Oct  3 16:35:12 2023.
