 Gaussian 16, Revision B.01,
 Gaussian 16:  ES64L-G16RevB.01 20-Dec-2017

 --------------------
 # b3lyp/gen opt freq
 --------------------

 -----------------------------
 methoxylmethyl, B3LYP/pcseg-2
 -----------------------------
 Symbolic Z-matrix:
 Charge =  0 Multiplicity = 2

 SCF Done:  E(UB3LYP) =  -154.433799455     A.U. after   14 cycles
 SCF Done:  E(UB3LYP) =  -154.433954178     A.U. after   11 cycles
 SCF Done:  E(UB3LYP) =  -154.433978553     A.U. after   10 cycles
 SCF Done:  E(UB3LYP) =  -154.433982501     A.U. after    9 cycles
 SCF Done:  E(UB3LYP) =  -154.433983459     A.U. after    8 cycles
 SCF Done:  E(UB3LYP) =  -154.433983650     A.U. after    7 cycles
 Optimization completed.
    -- Stationary point found.
 Normal termination of Gaussian 16 at Thu Jun 16 18:45:43 2022.

 ------------------------------------------------------------------
 #N Geom=AllCheck Guess=TCheck SCRF=Check GenChk UB3LYP/ChkBas Freq
 ------------------------------------------------------------------

 Structure from the checkpoint file:  "/wrk/irikura/Gau-4134.chk"
 -----------------------------
 methoxylmethyl, B3LYP/pcseg-2
 -----------------------------
 Charge =  0 Multiplicity = 2

                         Standard orientation:
 ---------------------------------------------------------------------
 Center     Atomic      Atomic             Coordinates (Angstroms)
 Number     Number       Type             X           Y           Z
 ---------------------------------------------------------------------
      1          8           0       -0.092015   -0.538961   -0.035022
      2          6           0        1.139715    0.167444    0.012056
      3          6           0       -1.203403    0.224599    0.061026
      4          1           0        1.931118   -0.562731   -0.132696
      5          1           0        1.265220    0.658399    0.979982
      6          1           0        1.185283    0.917429   -0.782624
      7          1           0       -2.125372   -0.327259   -0.022948
      8          1           0       -1.138001    1.273598   -0.200027
 ---------------------------------------------------------------------

 SCF Done:  E(UB3LYP) =  -154.433983650     A.U. after    1 cycles

 The electronic state is 2-A.
 Alpha  occ. eigenvalues --  -19.16277 -10.22715 -10.21466  -1.07250  -0.73658
 Alpha  occ. eigenvalues --   -0.63315  -0.50280  -0.49488  -0.47683  -0.40157
 Alpha  occ. eigenvalues --   -0.35983  -0.34147  -0.17769
 Alpha virt. eigenvalues --    0.01720   0.04802   0.06398   0.06798   0.07894
 Alpha virt. eigenvalues --    0.09071   0.14736   0.16912   0.18599   0.20703
 Alpha virt. eigenvalues --    0.24889   0.27411   0.29260   0.30800   0.33184

  Beta  occ. eigenvalues --  -19.15696 -10.22732 -10.20172  -1.06078  -0.72843
  Beta  occ. eigenvalues --   -0.61349  -0.49645  -0.48788  -0.46345  -0.39757
  Beta  occ. eigenvalues --   -0.34279  -0.32170
  Beta virt. eigenvalues --   -0.04329   0.01793   0.05046   0.06539   0.07053
  Beta virt. eigenvalues --    0.08265   0.09260   0.14888   0.17325   0.19648
  Beta virt. eigenvalues --    0.22547   0.26335   0.27726   0.29664   0.31564

 Mulliken charges and spin densities:
               1          2
     1  O   -0.362908   0.114901
     2  C    0.149856  -0.017239
     3  C    0.039587   0.923804
     4  H    0.043288  -0.001431
     5  H    0.034011   0.019297
     6  H    0.023077   0.011688
     7  H    0.050692  -0.025214
     8  H    0.022397  -0.025807
 Sum of Mulliken charges =  -0.00000   1.00000

 Dipole moment (field-independent basis, Debye):
    X=              0.9511    Y=              0.9778    Z=             -0.2966  Tot=              1.3959
 Quadrupole moment (field-independent basis, Debye-Ang):
   XX=            -17.1624   YY=            -20.0373   ZZ=            -20.9031
   XY=              0.1774   XZ=              0.4700   YZ=             -0.3560

  Exact polarizability:  38.099  -0.490  28.600   0.119  -0.149  28.104
 Approx polarizability:  44.111  -0.940  38.923   0.038  -0.025  35.856

                      1                      2                      3
                      A                      A                      A
 Frequencies --    159.0149               293.0679               428.8101
 Red. masses --      1.1105                 1.2562                 2.3581
 Frc consts  --      0.0165                 0.0636                 0.2555
 IR Inten    --      2.4280                 4.4788                 4.0671

                      4                      5                      6
                      A                      A                      A
 Frequencies --    526.9187               957.1400              1135.5086
 Red. masses --      1.2902                 4.2105                 1.2857
 Frc consts  --      0.2111                 2.2727                 0.9768
 IR Inten    --     56.2892                35.6475                 7.1429

                      7                      8                      9
                      A                      A                      A
 Frequencies --   1169.7978              1248.7903              1285.5072
 Red. masses --      1.2721                 1.6977                 3.9471
 Frc consts  --      1.0257                 1.5599                 3.8430
 IR Inten    --      2.2298                32.4838               142.3155

                     10                     11                     12
                      A                      A                      A
 Frequencies --   1458.9465              1487.2750              1495.1153
 Red. masses --      1.1010                 1.0499                 1.1348
 Frc consts  --      1.3807                 1.3683                 1.4946
 IR Inten    --      1.9122                 7.3040                 3.7711

                     13                     14                     15
                      A                      A                      A
 Frequencies --   1502.7266              3006.1721              3062.3428
 Red. masses --      1.1138                 1.0346                 1.1049
 Frc consts  --      1.4818                 5.5090                 6.1052
 IR Inten    --     15.4625                54.1444                45.8908

                     16                     17                     18
                      A                      A                      A
 Frequencies --   3118.5506              3135.6533              3267.4948
 Red. masses --      1.0472                 1.0994                 1.1220
 Frc consts  --      6.0007                 6.3690                 7.0575
 IR Inten    --     20.5542                17.4525                10.3210

 - Thermochemistry -
 -------------------
 Temperature   298.150 Kelvin.  Pressure   1.00000 Atm.
 Atom     1 has atomic number  8 and mass  15.99491

 Molecular mass:    45.03404 amu.
 Principal axes and moments of inertia in atomic units:
                           1         2         3
     Eigenvalues --    37.70211 169.34011 194.91358
           X            0.99997   0.00376   0.00730
           Y           -0.00350   0.99939  -0.03481
           Z           -0.00743   0.03479   0.99937
 This molecule is an asymmetric top.
 Rotational symmetry number  1.
 Rotational temperatures (Kelvin)      2.29732     0.51148     0.44437
 Rotational constants (GHZ):          47.86844    10.65749     9.25919
 Zero-point vibrational energy     171896.4 (Joules/Mol)
                                   41.08422 (Kcal/Mol)
 Warning -- explicit consideration of   4 degrees of freedom as
           vibrations may cause significant error
 Vibrational temperatures:    228.79   421.66   616.96   758.12  1377.11
          (Kelvin)           1633.74  1683.08  1796.73  1849.56  2099.10
                             2139.86  2151.14  2162.09  4325.21  4406.03
                             4486.90  4511.51  4701.20

 Zero-point correction=                           0.065472 (Hartree/Particle)
 Thermal correction to Energy=                    0.069979
 Thermal correction to Enthalpy=                  0.070923
 Thermal correction to Gibbs Free Energy=         0.039439
 Sum of electronic and zero-point Energies=           -154.368512
 Sum of electronic and thermal Energies=              -154.364005
 Sum of electronic and thermal Enthalpies=            -154.363060
 Sum of electronic and thermal Free Energies=         -154.394545

                     E (Thermal)             CV                S
                      KCal/Mol        Cal/Mol-Kelvin    Cal/Mol-Kelvin
 Total                   43.912             13.688             66.264
 Electronic               0.000              0.000              1.377
 Translational            0.889              2.981             37.340
 Rotational               0.889              2.981             21.747
 Vibrational             42.135              7.726              5.799
 Vibration     1          0.621              1.892              2.561
 Vibration     2          0.688              1.687              1.456
 Vibration     3          0.790              1.408              0.863
 Vibration     4          0.882              1.190              0.594

                           ! Non-Optimized Parameters !
 Normal termination of Gaussian 16 at Thu Jun 16 18:46:59 2022.
