 Gaussian 16, Revision B.01,

 ---------------------------------------
 # b3lyp/gen opt freq CPHF(Grid=OneStep)
 ---------------------------------------

 -----------------------------------
 methyl hydroperoxide, B3LYP/pcseg-2
 -----------------------------------
 Symbolic Z-matrix:
 Charge =  0 Multiplicity = 1

 SCF Done:  E(RB3LYP) =  -190.942533556     A.U. after   12 cycles
 Optimization completed.
    -- Stationary point found.
 Normal termination of Gaussian 16 at Fri Sep 29 06:36:50 2023.

 ------------------------------------------------------------------
 #N Geom=AllCheck Guess=TCheck SCRF=Check GenChk RB3LYP/ChkBas Freq
 ------------------------------------------------------------------

 Structure from the checkpoint file:  "ch3ooh.chk"
 -----------------------------------
 methyl hydroperoxide, B3LYP/pcseg-2
 -----------------------------------
 Charge =  0 Multiplicity = 1

 SCF Done:  E(RB3LYP) =  -190.942533556     A.U. after    1 cycles

  Exact polarizability:  31.965   1.446  22.833  -0.882   0.146  21.907
 Approx polarizability:  40.490   4.174  31.947  -1.056   0.581  28.579

                      1                      2                      3
                      A                      A                      A
 Frequencies --    157.0125               249.0101               446.0317
 Red. masses --      1.1087                 1.2149                 3.2867
 Frc consts  --      0.0161                 0.0444                 0.3852
 IR Inten    --    121.2050                 7.2966                 7.8073

                      4                      5                      6
                      A                      A                      A
 Frequencies --    878.9517              1035.3033              1172.2125
 Red. masses --      6.1917                 6.1692                 1.2610
 Frc consts  --      2.8183                 3.8960                 1.0209
 IR Inten    --     17.9842                19.8807                 2.1186

                      7                      8                      9
                      A                      A                      A
 Frequencies --   1203.9440              1372.0339              1449.8410
 Red. masses --      1.5322                 1.1611                 1.1384
 Frc consts  --      1.3085                 1.2878                 1.4099
 IR Inten    --      5.9560                47.6520                 0.9850

                     10                     11                     12
                      A                      A                      A
 Frequencies --   1460.5037              1510.2033              3011.8723
 Red. masses --      1.0481                 1.0579                 1.0298
 Frc consts  --      1.3172                 1.4216                 5.5041
 IR Inten    --      5.9985                 9.5275                38.4556

                     13                     14                     15
                      A                      A                      A
 Frequencies --   3077.8575              3111.7449              3771.9646
 Red. masses --      1.1063                 1.1026                 1.0684
 Frc consts  --      6.1745                 6.2903                 8.9564
 IR Inten    --     41.7097                13.9595                42.0915

 - Thermochemistry -
 -------------------
 Temperature   298.150 Kelvin.  Pressure   1.00000 Atm.
 Atom     1 has atomic number  6 and mass  12.00000

 Molecular mass:    48.02113 amu.
 Principal axes and moments of inertia in atomic units:
                           1         2         3
     Eigenvalues --    41.33448 173.28192 198.83133
           X            0.99929  -0.03056  -0.02191
           Y            0.03054   0.99953  -0.00126
           Z            0.02194   0.00059   0.99976
 This molecule is an asymmetric top.
 Rotational symmetry number  1.
 Rotational temperatures (Kelvin)      2.09544     0.49984     0.43562
 Rotational constants (GHZ):          43.66188    10.41506     9.07674
 Zero-point vibrational energy     143004.5 (Joules/Mol)
                                   34.17890 (Kcal/Mol)
 Warning -- explicit consideration of   3 degrees of freedom as
           vibrations may cause significant error
 Vibrational temperatures:    225.91   358.27   641.74  1264.62  1489.57
          (Kelvin)           1686.55  1732.21  1974.05  2086.00  2101.34
                             2172.85  4333.41  4428.35  4477.11  5427.02

 Zero-point correction=                           0.054468 (Hartree/Particle)
 Thermal correction to Energy=                    0.058837
 Thermal correction to Enthalpy=                  0.059781
 Thermal correction to Gibbs Free Energy=         0.028934
 Sum of electronic and zero-point Energies=           -190.888066
 Sum of electronic and thermal Energies=              -190.883696
 Sum of electronic and thermal Enthalpies=            -190.882752
 Sum of electronic and thermal Free Energies=         -190.913600

                     E (Thermal)             CV                S
                      KCal/Mol        Cal/Mol-Kelvin    Cal/Mol-Kelvin
 Total                   36.921             12.650             64.924
 Electronic               0.000              0.000              0.000
 Translational            0.889              2.981             37.531
 Rotational               0.889              2.981             21.881
 Vibrational             35.143              6.689              5.511
 Vibration     1          0.621              1.895              2.585
 Vibration     2          0.662              1.764              1.738
 Vibration     3          0.805              1.370              0.808

 Optimization completed.
    -- Stationary point found.
 Normal termination of Gaussian 16 at Fri Sep 29 06:38:57 2023.
 Gaussian 16:  ES64L-G16RevB.01 20-Dec-2017

 ---------------------------------
 # rohf/gen geom=check guess=check
 ---------------------------------

 --------------------------------------
 methyl hydroperoxide, ROHF/cc-pVTZ-F12
 --------------------------------------
 Structure from the checkpoint file:  "ch3ooh.chk"
 Charge =  0 Multiplicity = 1

                         Standard orientation:
 ---------------------------------------------------------------------
 Center     Atomic      Atomic             Coordinates (Angstroms)
 Number     Number       Type             X           Y           Z
 ---------------------------------------------------------------------
      1          6           0        1.130103   -0.223057    0.027076
      2          8           0       -0.015542    0.604797   -0.031824
      3          8           0       -1.163615   -0.285676   -0.089299
      4          1           0        1.970509    0.471127    0.018008
      5          1           0        1.148960   -0.817526    0.943505
      6          1           0        1.186092   -0.879118   -0.843440
      7          1           0       -1.652924    0.010898    0.688453
 ---------------------------------------------------------------------

 SCF Done:  E(ROHF) =  -189.890336512     A.U. after   12 cycles

 The electronic state is 1-A.
 Alpha  occ. eigenvalues --  -20.62356 -20.62141 -11.27902  -1.47151  -1.22816
 Alpha  occ. eigenvalues --   -0.91866  -0.72256  -0.66310  -0.64766  -0.59353
 Alpha  occ. eigenvalues --   -0.53071  -0.49919  -0.45072
 Alpha virt. eigenvalues --    0.05695   0.06608   0.07125   0.07538   0.11399
 Alpha virt. eigenvalues --    0.14556   0.15963   0.17780   0.18595   0.21271
 Alpha virt. eigenvalues --    0.23061   0.23488   0.24887   0.25355   0.25863

 Mulliken charges and spin densities:
               1          2
     1  C   -0.033064   0.000000
     2  O   -0.257932   0.000000
     3  O   -0.445270   0.000000
     4  H    0.117093   0.000000
     5  H    0.088957   0.000000
     6  H    0.107576   0.000000
     7  H    0.422641   0.000000
 Sum of Mulliken charges =  -0.00000   0.00000

 Dipole moment (field-independent basis, Debye):
    X=              0.7315    Y=             -0.4796    Z=              1.4179  Tot=              1.6660
 Quadrupole moment (field-independent basis, Debye-Ang):
   XX=            -14.7049   YY=            -19.7601   ZZ=            -17.6234
   XY=             -0.7553   XZ=             -2.6787   YZ=              0.1615

 Normal termination of Gaussian 16 at Fri Sep 29 06:39:38 2023.
