 Gaussian 16, Revision B.01,

 ---------------------------------------
 # b3lyp/gen opt freq CPHF(Grid=OneStep)
 ---------------------------------------

 -----------------------------
 methyl nitrite, B3LYP/pcseg-2
 -----------------------------
 Symbolic Z-matrix:
 Charge =  0 Multiplicity = 1

 SCF Done:  E(RB3LYP) =  -245.114084696     A.U. after   13 cycles
 Optimization completed.
    -- Stationary point found.
 Normal termination of Gaussian 16 at Sat Sep 30 23:11:40 2023.

 ------------------------------------------------------------------
 #N Geom=AllCheck Guess=TCheck SCRF=Check GenChk RB3LYP/ChkBas Freq
 ------------------------------------------------------------------

 Structure from the checkpoint file:  "ch3ono.chk"
 -----------------------------
 methyl nitrite, B3LYP/pcseg-2
 -----------------------------
 Charge =  0 Multiplicity = 1

 SCF Done:  E(RB3LYP) =  -245.114084696     A.U. after    1 cycles

  Exact polarizability:  34.773   5.434  33.218  -0.000   0.000  22.365
 Approx polarizability:  46.283   9.215  59.657  -0.000  -0.000  30.832

                      1                      2                      3
                     A"                     A'                     A"
 Frequencies --    176.2354               342.7104               364.0042
 Red. masses --      1.0829                 3.9744                 6.4821
 Frc consts  --      0.0198                 0.2750                 0.5060
 IR Inten    --      0.0824                 1.6408                 2.3175

                      4                      5                      6
                     A'                     A'                     A'
 Frequencies --    653.9583               856.8143               994.2631
 Red. masses --      6.2543                 6.7359                 7.0143
 Frc consts  --      1.5759                 2.9135                 4.0854
 IR Inten    --    159.9998                69.5050               104.5062

                      7                      8                      9
                     A"                     A'                     A'
 Frequencies --   1154.0719              1186.3236              1442.3634
 Red. masses --      1.3048                 1.5717                 1.1564
 Frc consts  --      1.0239                 1.3032                 1.4174
 IR Inten    --      0.9318                 0.2538                 2.4715

                     10                     11                     12
                     A"                     A'                     A'
 Frequencies --   1475.2786              1489.7780              1685.0689
 Red. masses --      1.0458                 1.0494                13.0857
 Frc consts  --      1.3410                 1.3723                21.8919
 IR Inten    --      9.7662                 6.7664               189.5813

                     13                     14                     15
                     A'                     A"                     A'
 Frequencies --   3048.0546              3117.4157              3165.3371
 Red. masses --      1.0303                 1.1062                 1.1045
 Frc consts  --      5.6399                 6.3337                 6.5201
 IR Inten    --     13.0502                16.5641                 5.6578

 - Thermochemistry -
 -------------------
 Temperature   298.150 Kelvin.  Pressure   1.00000 Atm.
 Atom     1 has atomic number  6 and mass  12.00000

 Molecular mass:    61.01638 amu.
 Principal axes and moments of inertia in atomic units:
                           1         2         3
     Eigenvalues --    87.48062 244.95738 321.08205
           X            0.81816  -0.57498   0.00000
           Y            0.57498   0.81816   0.00000
           Z            0.00000  -0.00000   1.00000
 This molecule is an asymmetric top.
 Rotational symmetry number  1.
 Rotational temperatures (Kelvin)      0.99009     0.35359     0.26976
 Rotational constants (GHZ):          20.63018     7.36757     5.62081
 Zero-point vibrational energy     126515.1 (Joules/Mol)
                                   30.23784 (Kcal/Mol)
 Warning -- explicit consideration of   3 degrees of freedom as
           vibrations may cause significant error
 Vibrational temperatures:    253.56   493.08   523.72   940.90  1232.76
          (Kelvin)           1430.52  1660.45  1706.86  2075.24  2122.60
                             2143.46  2424.44  4385.47  4485.27  4554.21

 Zero-point correction=                           0.048187 (Hartree/Particle)
 Thermal correction to Energy=                    0.052625
 Thermal correction to Enthalpy=                  0.053569
 Thermal correction to Gibbs Free Energy=         0.021673
 Sum of electronic and zero-point Energies=           -245.065898
 Sum of electronic and thermal Energies=              -245.061460
 Sum of electronic and thermal Enthalpies=            -245.060516
 Sum of electronic and thermal Free Energies=         -245.092412

                     E (Thermal)             CV                S
                      KCal/Mol        Cal/Mol-Kelvin    Cal/Mol-Kelvin
 Total                   33.023             13.575             67.131
 Electronic               0.000              0.000              0.000
 Translational            0.889              2.981             38.245
 Rotational               0.889              2.981             23.446
 Vibrational             31.245              7.614              5.439
 Vibration     1          0.628              1.872              2.368
 Vibration     2          0.722              1.590              1.200
 Vibration     3          0.738              1.546              1.105

 Optimization completed.
    -- Stationary point found.
 Normal termination of Gaussian 16 at Sat Sep 30 23:13:49 2023.
 Gaussian 16:  ES64L-G16RevB.01 20-Dec-2017

 ---------------------------------
 # rohf/gen geom=check guess=check
 ---------------------------------

 --------------------------------
 methyl nitrite, ROHF/cc-pVTZ-F12
 --------------------------------
 Structure from the checkpoint file:  "ch3ono.chk"
 Charge =  0 Multiplicity = 1

                         Standard orientation:
 ---------------------------------------------------------------------
 Center     Atomic      Atomic             Coordinates (Angstroms)
 Number     Number       Type             X           Y           Z
 ---------------------------------------------------------------------
      1          6           0        1.327926    0.334459    0.000000
      2          8           0        0.000000    0.883121    0.000000
      3          1           0        1.982327    1.199689    0.000000
      4          1           0        1.494852   -0.273540    0.888158
      5          1           0        1.494852   -0.273540   -0.888158
      6          7           0       -1.045143   -0.047542    0.000000
      7          8           0       -0.702948   -1.173942    0.000000
 ---------------------------------------------------------------------

 SCF Done:  E(ROHF) =  -243.777038525     A.U. after   13 cycles

 The electronic state is 1-A'.
 Alpha  occ. eigenvalues --  -20.65038 -20.63176 -15.78461 -11.29486  -1.59974
 Alpha  occ. eigenvalues --   -1.40068  -1.02076  -0.87749  -0.76329  -0.72644
 Alpha  occ. eigenvalues --   -0.70366  -0.60333  -0.60243  -0.54996  -0.48758
 Alpha  occ. eigenvalues --   -0.45756
 Alpha virt. eigenvalues --    0.05118   0.06495   0.06681   0.07191   0.09390
 Alpha virt. eigenvalues --    0.11217   0.11403   0.13579   0.15505   0.17483
 Alpha virt. eigenvalues --    0.20146   0.20477   0.21911   0.22671   0.23313

 Mulliken charges and spin densities:
               1          2
     1  C   -0.084014  -0.000000
     2  O   -0.275093  -0.000000
     3  H    0.143902  -0.000000
     4  H    0.116324  -0.000000
     5  H    0.116324  -0.000000
     6  N    0.263392  -0.000000
     7  O   -0.280835  -0.000000
 Sum of Mulliken charges =  -0.00000  -0.00000

 Dipole moment (field-independent basis, Debye):
    X=              2.0599    Y=              0.0862    Z=             -0.0000  Tot=              2.0617
 Quadrupole moment (field-independent basis, Debye-Ang):
   XX=            -21.5782   YY=            -25.9219   ZZ=            -22.1070
   XY=              0.4164   XZ=             -0.0000   YZ=             -0.0000

 Normal termination of Gaussian 16 at Sat Sep 30 23:14:49 2023.
