 Gaussian 16, Revision B.01,
 Gaussian 16:  ES64L-G16RevB.01 20-Dec-2017

 ---------------------------------------
 # b3lyp/gen opt freq CPHF(Grid=OneStep)
 ---------------------------------------

 -----------------------
 methoxyl, B3LYP/pcseg-2
 -----------------------
 Symbolic Z-matrix:
 Charge =  0 Multiplicity = 2

 SCF Done:  E(UB3LYP) =  -115.104815918     A.U. after   13 cycles
 SCF Done:  E(UB3LYP) =  -115.104871252     A.U. after    9 cycles
 SCF Done:  E(UB3LYP) =  -115.104873507     A.U. after    7 cycles
 SCF Done:  E(UB3LYP) =  -115.104873997     A.U. after    8 cycles
 Optimization completed.
    -- Stationary point found.
 Normal termination of Gaussian 16 at Sat Sep 16 01:22:03 2023.

 ------------------------------------------------------------------
 #N Geom=AllCheck Guess=TCheck SCRF=Check GenChk UB3LYP/ChkBas Freq
 ------------------------------------------------------------------

 Structure from the checkpoint file:  "/wrk/irikura/Gau-121102.chk"
 -----------------------
 methoxyl, B3LYP/pcseg-2
 -----------------------
 Charge =  0 Multiplicity = 2

                         Standard orientation:
 ---------------------------------------------------------------------
 Center     Atomic      Atomic             Coordinates (Angstroms)
 Number     Number       Type             X           Y           Z
 ---------------------------------------------------------------------
      1          6           0        0.011336   -0.572859    0.000000
      2          8           0        0.011336    0.789757   -0.000000
      3          1           0       -1.056250   -0.866084    0.000000
      4          1           0        0.448771   -1.007406    0.908097
      5          1           0        0.448771   -1.007406   -0.908097
 ---------------------------------------------------------------------

 SCF Done:  E(UB3LYP) =  -115.104873997     A.U. after    1 cycles

 The electronic state is 2-A'.
 Alpha  occ. eigenvalues --  -19.17427 -10.23369  -1.03615  -0.68192  -0.49327
 Alpha  occ. eigenvalues --   -0.47202  -0.44619  -0.33977  -0.29733
 Alpha virt. eigenvalues --    0.01409   0.06581   0.07224   0.07488   0.15872
 Alpha virt. eigenvalues --    0.17991   0.29112   0.30671   0.32069   0.32453
 Alpha virt. eigenvalues --    0.32711   0.37937   0.40701   0.42389   0.66939

  Beta  occ. eigenvalues --  -19.15011 -10.23422  -0.98436  -0.66371  -0.46637
  Beta  occ. eigenvalues --   -0.44809  -0.42546  -0.27740
  Beta virt. eigenvalues --   -0.14927   0.01545   0.06922   0.07248   0.07908
  Beta virt. eigenvalues --    0.16411   0.18209   0.29740   0.31199   0.32315
  Beta virt. eigenvalues --    0.32801   0.33107   0.41257   0.41719   0.43431

 Mulliken charges and spin densities:
               1          2
     1  C    0.183130  -0.042346
     2  O   -0.303349   0.888488
     3  H    0.056617   0.108623
     4  H    0.031801   0.022618
     5  H    0.031801   0.022618
 Sum of Mulliken charges =  -0.00000   1.00000

 Dipole moment (field-independent basis, Debye):
    X=             -0.2183    Y=             -2.1215    Z=             -0.0000  Tot=              2.1327
 Quadrupole moment (field-independent basis, Debye-Ang):
   XX=            -11.7231   YY=            -13.7423   ZZ=            -12.8467
   XY=              0.2356   XZ=             -0.0000   YZ=              0.0000

  Exact polarizability:  16.137   0.170  21.420  -0.000   0.000  18.606
 Approx polarizability:  20.681   0.732  28.524  -0.000   0.000  20.859

                      1                      2                      3
                     A"                     A'                     A'
 Frequencies --    683.8354               957.6001              1105.4434
 Red. masses --      1.3259                 1.5329                 3.9944
 Frc consts  --      0.3653                 0.8282                 2.8759
 IR Inten    --     78.6969                 0.6070                 9.3726

                      4                      5                      6
                     A"                     A'                     A'
 Frequencies --   1351.3825              1363.9173              1512.1506
 Red. masses --      1.0278                 1.0941                 1.1103
 Frc consts  --      1.1059                 1.1991                 1.4958
 IR Inten    --     15.8884                22.2665                 5.7708

                      7                      8                      9
                     A'                     A'                     A"
 Frequencies --   2891.4803              2967.3610              3010.7904
 Red. masses --      1.0485                 1.0664                 1.1012
 Frc consts  --      5.1646                 5.5324                 5.8815
 IR Inten    --      0.7317                40.0404                29.5348

 - Thermochemistry -
 -------------------
 Temperature   298.150 Kelvin.  Pressure   1.00000 Atm.
 Atom     1 has atomic number  6 and mass  12.00000

 Molecular mass:    31.01839 amu.
 Principal axes and moments of inertia in atomic units:
                           1         2         3
     Eigenvalues --    11.40981  64.23047  64.69222
           X            0.00412   0.00000   0.99999
           Y            0.99999   0.00000  -0.00412
           Z            0.00000   1.00000   0.00000
 This molecule is an asymmetric top.
 Rotational symmetry number  1.
 Rotational temperatures (Kelvin)      7.59118     1.34849     1.33886
 Rotational constants (GHZ):         158.17457    28.09790    27.89735
 Zero-point vibrational energy      94767.9 (Joules/Mol)
                                   22.65008 (Kcal/Mol)
 Vibrational temperatures:    983.89  1377.77  1590.49  1944.34  1962.37
          (Kelvin)           2175.65  4160.20  4269.37  4331.86

 Zero-point correction=                           0.036095 (Hartree/Particle)
 Thermal correction to Energy=                    0.039137
 Thermal correction to Enthalpy=                  0.040081
 Thermal correction to Gibbs Free Energy=         0.013161
 Sum of electronic and zero-point Energies=           -115.068779
 Sum of electronic and thermal Energies=              -115.065737
 Sum of electronic and thermal Enthalpies=            -115.064793
 Sum of electronic and thermal Free Energies=         -115.091713

                     E (Thermal)             CV                S
                      KCal/Mol        Cal/Mol-Kelvin    Cal/Mol-Kelvin
 Total                   24.559              7.840             56.659
 Electronic               0.000              0.000              1.377
 Translational            0.889              2.981             36.229
 Rotational               0.889              2.981             18.501
 Vibrational             22.782              1.879              0.552

 Optimization completed.
    -- Stationary point found.
 Normal termination of Gaussian 16 at Sat Sep 16 01:22:58 2023.
