 Gaussian 16, Revision B.01,
 Gaussian 16:  ES64L-G16RevB.01 20-Dec-2017

 --------------------
 # b3lyp/gen opt freq
 --------------------

 ----------------------------------
 methyl hypochlorite, B3LYP/pcseg-2
 ----------------------------------
 Symbolic Z-matrix:
 Charge =  0 Multiplicity = 1

 SCF Done:  E(RB3LYP) =  -575.352342482     A.U. after   12 cycles
 SCF Done:  E(RB3LYP) =  -575.352732001     A.U. after   10 cycles
 SCF Done:  E(RB3LYP) =  -575.352812648     A.U. after    8 cycles
 SCF Done:  E(RB3LYP) =  -575.352813377     A.U. after    7 cycles
 Optimization completed.
    -- Stationary point found.
 Normal termination of Gaussian 16 at Thu Jun 16 16:10:57 2022.

 ------------------------------------------------------------------
 #N Geom=AllCheck Guess=TCheck SCRF=Check GenChk RB3LYP/ChkBas Freq
 ------------------------------------------------------------------

 Structure from the checkpoint file:  "/wrk/irikura/Gau-31915.chk"
 ----------------------------------
 methyl hypochlorite, B3LYP/pcseg-2
 ----------------------------------
 Charge =  0 Multiplicity = 1

                         Standard orientation:
 ---------------------------------------------------------------------
 Center     Atomic      Atomic             Coordinates (Angstroms)
 Number     Number       Type             X           Y           Z
 ---------------------------------------------------------------------
      1          8           0        0.000000    0.801016    0.000000
      2         17           0       -0.810833   -0.702084    0.000000
      3          6           0        1.413260    0.618683    0.000000
      4          1           0        1.809959    1.633712    0.000000
      5          1           0        1.747317    0.090749    0.894492
      6          1           0        1.747317    0.090749   -0.894492
 ---------------------------------------------------------------------

 SCF Done:  E(RB3LYP) =  -575.352813377     A.U. after    1 cycles

 The electronic state is 1-A'.
 Alpha  occ. eigenvalues -- -101.55055 -19.19562 -10.23742  -9.49156  -7.25700
 Alpha  occ. eigenvalues --   -7.24283  -7.24261  -1.07225  -0.81715  -0.68601
 Alpha  occ. eigenvalues --   -0.51073  -0.48165  -0.47762  -0.38376  -0.37226
 Alpha  occ. eigenvalues --   -0.31880  -0.27936
 Alpha virt. eigenvalues --   -0.07887   0.01865   0.06487   0.07379   0.07929
 Alpha virt. eigenvalues --    0.16479   0.17212   0.24373   0.28398   0.28950
 Alpha virt. eigenvalues --    0.31460   0.31811   0.32591   0.33126   0.34684

 Mulliken charges:
               1
     1  O   -0.321086
     2  Cl   0.041861
     3  C    0.158263
     4  H    0.043206
     5  H    0.038878
     6  H    0.038878
 Sum of Mulliken charges =   0.00000

 Dipole moment (field-independent basis, Debye):
    X=              1.8727    Y=             -0.1364    Z=              0.0000  Tot=              1.8776
 Quadrupole moment (field-independent basis, Debye-Ang):
   XX=            -22.6804   YY=            -24.7058   ZZ=            -25.5160
   XY=              2.1173   XZ=              0.0000   YZ=              0.0000

  Exact polarizability:  34.835   8.631  32.508   0.000   0.000  22.614
 Approx polarizability:  45.323  12.626  51.298  -0.000  -0.000  30.674

                      1                      2                      3
                     A"                     A'                     A'
 Frequencies --    244.2703               366.2155               678.6258
 Red. masses --      1.1784                 3.6262                 8.9421
 Frc consts  --      0.0414                 0.2865                 2.4263
 IR Inten    --      2.9801                 3.1060                 4.4662

                      4                      5                      6
                     A'                     A"                     A'
 Frequencies --   1008.2319              1170.4841              1193.4066
 Red. masses --      6.6160                 1.2574                 1.4596
 Frc consts  --      3.9625                 1.0150                 1.2248
 IR Inten    --     42.4629                 1.1515                12.8186

                      7                      8                      9
                     A'                     A"                     A'
 Frequencies --   1455.0072              1462.8426              1506.2518
 Red. masses --      1.1301                 1.0483                 1.0558
 Frc consts  --      1.4096                 1.3217                 1.4114
 IR Inten    --      2.6056                 7.7248                10.9755

                     10                     11                     12
                     A'                     A"                     A'
 Frequencies --   3019.8822              3091.1486              3114.9665
 Red. masses --      1.0280                 1.1078                 1.1043
 Frc consts  --      5.5237                 6.2366                 6.3129
 IR Inten    --     34.1363                31.2797                 8.6388

 - Thermochemistry -
 -------------------
 Temperature   298.150 Kelvin.  Pressure   1.00000 Atm.
 Atom     1 has atomic number  8 and mass  15.99491

 Molecular mass:    65.98724 amu.
 Principal axes and moments of inertia in atomic units:
                           1         2         3
     Eigenvalues --    42.11297 292.81851 323.41300
           X            0.80663  -0.59105   0.00000
           Y            0.59105   0.80663   0.00000
           Z            0.00000   0.00000   1.00000
 This molecule is an asymmetric top.
 Rotational symmetry number  1.
 Rotational temperatures (Kelvin)      2.05670     0.29579     0.26781
 Rotational constants (GHZ):          42.85476     6.16334     5.58030
 Zero-point vibrational energy     109526.1 (Joules/Mol)
                                   26.17736 (Kcal/Mol)
 Warning -- explicit consideration of   2 degrees of freedom as
           vibrations may cause significant error
 Vibrational temperatures:    351.45   526.90   976.39  1450.62  1684.07
          (Kelvin)           1717.05  2093.43  2104.70  2167.16  4344.94
                             4447.47  4481.74

 Zero-point correction=                           0.041716 (Hartree/Particle)
 Thermal correction to Energy=                    0.045597
 Thermal correction to Enthalpy=                  0.046541
 Thermal correction to Gibbs Free Energy=         0.015751
 Sum of electronic and zero-point Energies=           -575.311097
 Sum of electronic and thermal Energies=              -575.307216
 Sum of electronic and thermal Enthalpies=            -575.306272
 Sum of electronic and thermal Free Energies=         -575.337062

                     E (Thermal)             CV                S
                      KCal/Mol        Cal/Mol-Kelvin    Cal/Mol-Kelvin
 Total                   28.612             11.195             64.802
 Electronic               0.000              0.000              0.000
 Translational            0.889              2.981             38.479
 Rotational               0.889              2.981             22.904
 Vibrational             26.835              5.234              3.419
 Vibration     1          0.660              1.772              1.772
 Vibration     2          0.739              1.542              1.096

 Optimization completed.
    -- Stationary point found.
 Normal termination of Gaussian 16 at Thu Jun 16 16:11:17 2022.
