 Gaussian 16, Revision B.01,
 Gaussian 16:  ES64L-G16RevB.01 20-Dec-2017

 --------------------
 # b3lyp/gen opt freq
 --------------------

 -----------------------------------
 methyl hydroperoxide, B3LYP/pcseg-2
 -----------------------------------
 Symbolic Z-matrix:
 Charge =  0 Multiplicity = 1

 SCF Done:  E(RB3LYP) =  -190.942364836     A.U. after   11 cycles
 SCF Done:  E(RB3LYP) =  -190.942485913     A.U. after   11 cycles
 SCF Done:  E(RB3LYP) =  -190.942523264     A.U. after   10 cycles
 SCF Done:  E(RB3LYP) =  -190.942531834     A.U. after    9 cycles
 SCF Done:  E(RB3LYP) =  -190.942533381     A.U. after    8 cycles
 SCF Done:  E(RB3LYP) =  -190.942533556     A.U. after    7 cycles
 Optimization completed.
    -- Stationary point found.
 Normal termination of Gaussian 16 at Wed Jun 15 11:05:46 2022.

 ------------------------------------------------------------------
 #N Geom=AllCheck Guess=TCheck SCRF=Check GenChk RB3LYP/ChkBas Freq
 ------------------------------------------------------------------

 Structure from the checkpoint file:  "/wrk/irikura/Gau-8003.chk"
 -----------------------------------
 methyl hydroperoxide, B3LYP/pcseg-2
 -----------------------------------
 Charge =  0 Multiplicity = 1

                         Standard orientation:
 ---------------------------------------------------------------------
 Center     Atomic      Atomic             Coordinates (Angstroms)
 Number     Number       Type             X           Y           Z
 ---------------------------------------------------------------------
      1          6           0        1.130103   -0.223057    0.027076
      2          8           0       -0.015542    0.604797   -0.031824
      3          8           0       -1.163615   -0.285676   -0.089299
      4          1           0        1.970509    0.471127    0.018008
      5          1           0        1.148960   -0.817526    0.943505
      6          1           0        1.186092   -0.879118   -0.843440
      7          1           0       -1.652924    0.010898    0.688453
 ---------------------------------------------------------------------

 SCF Done:  E(RB3LYP) =  -190.942533556     A.U. after    1 cycles

 The electronic state is 1-A.
 Alpha  occ. eigenvalues --  -19.18700 -19.18283 -10.22280  -1.12398  -0.92170
 Alpha  occ. eigenvalues --   -0.68002  -0.53986  -0.48262  -0.47051  -0.42574
 Alpha  occ. eigenvalues --   -0.37829  -0.32430  -0.27209
 Alpha virt. eigenvalues --   -0.00094   0.01590   0.03800   0.07196   0.08182
 Alpha virt. eigenvalues --    0.10772   0.17514   0.18571   0.28218   0.29114
 Alpha virt. eigenvalues --    0.30475   0.32910   0.33232   0.33526   0.34385

 Mulliken charges:
               1
     1  C    0.189019
     2  O   -0.255064
     3  O   -0.228037
     4  H    0.029511
     5  H    0.016283
     6  H    0.032437
     7  H    0.215851
 Sum of Mulliken charges =  -0.00000

 Dipole moment (field-independent basis, Debye):
    X=              0.6998    Y=             -0.4182    Z=              1.3712  Tot=              1.5953
 Quadrupole moment (field-independent basis, Debye-Ang):
   XX=            -14.9451   YY=            -19.9959   ZZ=            -18.0269
   XY=             -0.6490   XZ=             -2.6085   YZ=              0.1781

  Exact polarizability:  31.965   1.446  22.833  -0.882   0.146  21.907
 Approx polarizability:  40.490   4.174  31.947  -1.056   0.581  28.579

                      1                      2                      3
                      A                      A                      A
 Frequencies --    156.9906               249.0066               446.0296
 Red. masses --      1.1087                 1.2149                 3.2867
 Frc consts  --      0.0161                 0.0444                 0.3852
 IR Inten    --    121.2044                 7.2955                 7.8075

                      4                      5                      6
                      A                      A                      A
 Frequencies --    878.9537              1035.3050              1172.2124
 Red. masses --      6.1917                 6.1692                 1.2610
 Frc consts  --      2.8183                 3.8959                 1.0209
 IR Inten    --     17.9844                19.8818                 2.1186

                      7                      8                      9
                      A                      A                      A
 Frequencies --   1203.9443              1372.0353              1449.8387
 Red. masses --      1.5322                 1.1611                 1.1384
 Frc consts  --      1.3085                 1.2878                 1.4099
 IR Inten    --      5.9561                47.6540                 0.9846

                     10                     11                     12
                      A                      A                      A
 Frequencies --   1460.5003              1510.2019              3011.8709
 Red. masses --      1.0481                 1.0579                 1.0298
 Frc consts  --      1.3172                 1.4216                 5.5041
 IR Inten    --      5.9989                 9.5279                38.4511

                     13                     14                     15
                      A                      A                      A
 Frequencies --   3077.8580              3111.7405              3771.9597
 Red. masses --      1.1063                 1.1026                 1.0684
 Frc consts  --      6.1745                 6.2903                 8.9564
 IR Inten    --     41.7084                13.9594                42.0900

 - Thermochemistry -
 -------------------
 Temperature   298.150 Kelvin.  Pressure   1.00000 Atm.
 Atom     1 has atomic number  6 and mass  12.00000

 Molecular mass:    48.02113 amu.
 Principal axes and moments of inertia in atomic units:
                           1         2         3
     Eigenvalues --    41.33446 173.28193 198.83132
           X            0.99929  -0.03056  -0.02191
           Y            0.03054   0.99953  -0.00126
           Z            0.02193   0.00059   0.99976
 This molecule is an asymmetric top.
 Rotational symmetry number  1.
 Rotational temperatures (Kelvin)      2.09544     0.49984     0.43562
 Rotational constants (GHZ):          43.66190    10.41506     9.07675
 Zero-point vibrational energy     143004.3 (Joules/Mol)
                                   34.17884 (Kcal/Mol)
 Warning -- explicit consideration of   3 degrees of freedom as
           vibrations may cause significant error
 Vibrational temperatures:    225.87   358.26   641.74  1264.62  1489.57
          (Kelvin)           1686.55  1732.21  1974.05  2085.99  2101.33
                             2172.84  4333.41  4428.35  4477.10  5427.01

 Zero-point correction=                           0.054467 (Hartree/Particle)
 Thermal correction to Energy=                    0.058837
 Thermal correction to Enthalpy=                  0.059781
 Thermal correction to Gibbs Free Energy=         0.028934
 Sum of electronic and zero-point Energies=           -190.888066
 Sum of electronic and thermal Energies=              -190.883696
 Sum of electronic and thermal Enthalpies=            -190.882752
 Sum of electronic and thermal Free Energies=         -190.913600

                     E (Thermal)             CV                S
                      KCal/Mol        Cal/Mol-Kelvin    Cal/Mol-Kelvin
 Total                   36.921             12.650             64.924
 Electronic               0.000              0.000              0.000
 Translational            0.889              2.981             37.531
 Rotational               0.889              2.981             21.881
 Vibrational             35.143              6.689              5.511
 Vibration     1          0.621              1.895              2.586
 Vibration     2          0.662              1.764              1.738
 Vibration     3          0.805              1.370              0.808

 Optimization completed.
    -- Stationary point found.
 Normal termination of Gaussian 16 at Wed Jun 15 11:06:23 2022.
