 Gaussian 16, Revision B.01,
 Gaussian 16:  ES64L-G16RevB.01 20-Dec-2017

 --------------------
 # b3lyp/gen opt freq
 --------------------

 --------------------
 CH3Cl, B3LYP/pcseg-2
 --------------------
 Symbolic Z-matrix:
 Charge =  0 Multiplicity = 1

 SCF Done:  E(RB3LYP) =  -115.743921021     A.U. after   10 cycles
 SCF Done:  E(RB3LYP) =  -115.776487767     A.U. after   10 cycles
 SCF Done:  E(RB3LYP) =  -115.778716203     A.U. after    9 cycles
 SCF Done:  E(RB3LYP) =  -115.778850049     A.U. after    8 cycles
 SCF Done:  E(RB3LYP) =  -115.778885283     A.U. after    7 cycles
 SCF Done:  E(RB3LYP) =  -115.778891151     A.U. after    7 cycles
 Optimization completed.
    -- Stationary point found.
 Normal termination of Gaussian 16 at Wed Feb  2 17:48:39 2022.

 ------------------------------------------------------------------
 #N Geom=AllCheck Guess=TCheck SCRF=Check GenChk RB3LYP/ChkBas Freq
 ------------------------------------------------------------------

 Structure from the checkpoint file:  "/wrk/irikura/Gau-15318.chk"
 --------------------
 CH3Cl, B3LYP/pcseg-2
 --------------------
 Charge =  0 Multiplicity = 1

                         Standard orientation:
 ---------------------------------------------------------------------
 Center     Atomic      Atomic             Coordinates (Angstroms)
 Number     Number       Type             X           Y           Z
 ---------------------------------------------------------------------
      1          6           0       -0.046542    0.664870   -0.000000
      2          8           0       -0.046542   -0.756821   -0.000000
      3          1           0       -1.087591    0.980503   -0.000000
      4          1           0        0.438936    1.076471    0.890360
      5          1           0        0.438936    1.076471   -0.890360
      6          1           0        0.861309   -1.068102    0.000000
 ---------------------------------------------------------------------

 SCF Done:  E(RB3LYP) =  -115.778891151     A.U. after    1 cycles

 The electronic state is 1-A'.
 Alpha  occ. eigenvalues --  -19.12464 -10.21520  -1.02221  -0.68745  -0.51333
 Alpha  occ. eigenvalues --   -0.44474  -0.43128  -0.34324  -0.28329
 Alpha virt. eigenvalues --    0.00730   0.03787   0.07647   0.08024   0.11748
 Alpha virt. eigenvalues --    0.16905   0.18972   0.27867   0.30570   0.33253
 Alpha virt. eigenvalues --    0.33663   0.34255   0.36572   0.39890   0.41224

 Mulliken charges:
               1
     1  C    0.171771
     2  O   -0.417438
     3  H    0.032427
     4  H    0.014106
     5  H    0.014106
     6  H    0.185028
 Sum of Mulliken charges =  -0.00000

 Dipole moment (field-independent basis, Debye):
    X=              1.4081    Y=              0.9937    Z=              0.0000  Tot=              1.7234
 Quadrupole moment (field-independent basis, Debye-Ang):
   XX=            -11.9072   YY=            -13.4894   ZZ=            -13.8986
   XY=             -2.1671   XZ=             -0.0000   YZ=             -0.0000

  Exact polarizability:  19.072  -0.679  20.781  -0.000  -0.000  17.976
 Approx polarizability:  24.912  -0.737  25.329   0.000   0.000  22.397

                      1                      2                      3
                     A"                     A'                     A'
 Frequencies --    297.0163              1042.8786              1078.3441
 Red. masses --      1.0709                 3.3804                 1.3211
 Frc consts  --      0.0557                 2.1661                 0.9051
 IR Inten    --    117.3907               123.7455                 0.8601

                      4                      5                      6
                     A"                     A'                     A'
 Frequencies --   1171.2238              1367.3903              1480.6856
 Red. masses --      1.2665                 1.2894                 1.1347
 Frc consts  --      1.0236                 1.4204                 1.4658
 IR Inten    --      0.5183                23.9378                 4.4888

                      7                      8                      9
                     A"                     A'                     A'
 Frequencies --   1495.1040              1507.4972              2993.1135
 Red. masses --      1.0484                 1.0434                 1.0359
 Frc consts  --      1.3807                 1.3971                 5.4680
 IR Inten    --      2.2748                 4.3689                62.6880

                     10                     11                     12
                     A"                     A'                     A'
 Frequencies --   3038.6936              3113.9190              3838.2539
 Red. masses --      1.1054                 1.0971                 1.0666
 Frc consts  --      6.0135                 6.2678                 9.2583
 IR Inten    --     59.8905                26.2889                29.4251

 - Thermochemistry -
 -------------------
 Temperature   298.150 Kelvin.  Pressure   1.00000 Atm.
 Atom     1 has atomic number  6 and mass  12.00000

 Molecular mass:    32.02621 amu.
 Principal axes and moments of inertia in atomic units:
                           1         2         3
     Eigenvalues --    14.01480  72.98137  75.58385
           X           -0.05451   0.99851   0.00000
           Y            0.99851   0.05451   0.00000
           Z           -0.00000  -0.00000   1.00000
 This molecule is an asymmetric top.
 Rotational symmetry number  1.
 Rotational temperatures (Kelvin)      6.18018     1.18679     1.14593
 Rotational constants (GHZ):         128.77395    24.72879    23.87734
 Zero-point vibrational energy     134126.0 (Joules/Mol)
                                   32.05689 (Kcal/Mol)
 Warning -- explicit consideration of   1 degrees of freedom as
           vibrations may cause significant error
 Vibrational temperatures:    427.34  1500.47  1551.50  1685.13  1967.37
          (Kelvin)           2130.38  2151.12  2168.95  4306.42  4372.00
                             4480.23  5522.39

 Zero-point correction=                           0.051086 (Hartree/Particle)
 Thermal correction to Energy=                    0.054443
 Thermal correction to Enthalpy=                  0.055387
 Thermal correction to Gibbs Free Energy=         0.028307
 Sum of electronic and zero-point Energies=           -115.727805
 Sum of electronic and thermal Energies=              -115.724448
 Sum of electronic and thermal Enthalpies=            -115.723504
 Sum of electronic and thermal Free Energies=         -115.750584

                     E (Thermal)             CV                S
                      KCal/Mol        Cal/Mol-Kelvin    Cal/Mol-Kelvin
 Total                   34.164              8.845             56.994
 Electronic               0.000              0.000              0.000
 Translational            0.889              2.981             36.324
 Rotational               0.889              2.981             18.986
 Vibrational             32.386              2.883              1.684
 Vibration     1          0.691              1.679              1.434

 Optimization completed.
    -- Stationary point found.
 Normal termination of Gaussian 16 at Wed Feb  2 17:50:17 2022.
