 Gaussian 16, Revision B.01,
 Gaussian 16:  ES64L-G16RevB.01 20-Dec-2017

 --------------------
 # b3lyp/gen opt freq
 --------------------

 -----------------------------
 methyl nitrite, B3LYP/pcseg-2
 -----------------------------
 Symbolic Z-matrix:
 Charge =  0 Multiplicity = 1

 SCF Done:  E(RB3LYP) =  -245.114052767     A.U. after   13 cycles
 SCF Done:  E(RB3LYP) =  -245.114082957     A.U. after    9 cycles
 SCF Done:  E(RB3LYP) =  -245.114083345     A.U. after    8 cycles
 SCF Done:  E(RB3LYP) =  -245.114084696     A.U. after    8 cycles
 Optimization completed.
    -- Stationary point found.
 Normal termination of Gaussian 16 at Thu Jun 16 14:08:18 2022.

 ------------------------------------------------------------------
 #N Geom=AllCheck Guess=TCheck SCRF=Check GenChk RB3LYP/ChkBas Freq
 ------------------------------------------------------------------

 Structure from the checkpoint file:  "/wrk/irikura/Gau-4230.chk"
 -----------------------------
 methyl nitrite, B3LYP/pcseg-2
 -----------------------------
 Charge =  0 Multiplicity = 1

                         Standard orientation:
 ---------------------------------------------------------------------
 Center     Atomic      Atomic             Coordinates (Angstroms)
 Number     Number       Type             X           Y           Z
 ---------------------------------------------------------------------
      1          6           0        1.327926    0.334459    0.000000
      2          8           0        0.000000    0.883121    0.000000
      3          1           0        1.982327    1.199689    0.000000
      4          1           0        1.494852   -0.273540    0.888158
      5          1           0        1.494852   -0.273540   -0.888158
      6          7           0       -1.045143   -0.047542    0.000000
      7          8           0       -0.702948   -1.173942    0.000000
 ---------------------------------------------------------------------

 SCF Done:  E(RB3LYP) =  -245.114084696     A.U. after    1 cycles

 The electronic state is 1-A'.
 Alpha  occ. eigenvalues --  -19.20648 -19.20319 -14.49993 -10.24114  -1.23588
 Alpha  occ. eigenvalues --   -1.06742  -0.77127  -0.63878  -0.56631  -0.52858
 Alpha  occ. eigenvalues --   -0.52050  -0.45363  -0.43596  -0.38542  -0.33836
 Alpha  occ. eigenvalues --   -0.29267
 Alpha virt. eigenvalues --   -0.08745   0.01516   0.05721   0.06297   0.07096
 Alpha virt. eigenvalues --    0.12692   0.16150   0.16781   0.20505   0.23845
 Alpha virt. eigenvalues --    0.26979   0.27773   0.30213   0.31541   0.32183

 Mulliken charges:
               1
     1  C    0.118688
     2  O   -0.252520
     3  H    0.055207
     4  H    0.049650
     5  H    0.049650
     6  N    0.218843
     7  O   -0.239519
 Sum of Mulliken charges =  -0.00000

 Dipole moment (field-independent basis, Debye):
    X=              2.2630    Y=              0.1383    Z=             -0.0000  Tot=              2.2672
 Quadrupole moment (field-independent basis, Debye-Ang):
   XX=            -22.0248   YY=            -25.9178   ZZ=            -22.2243
   XY=              0.5553   XZ=              0.0000   YZ=              0.0000

  Exact polarizability:  34.773   5.434  33.218  -0.000   0.000  22.365
 Approx polarizability:  46.283   9.215  59.657  -0.000   0.000  30.832

                      1                      2                      3
                     A"                     A'                     A"
 Frequencies --    176.2346               342.7108               364.0096
 Red. masses --      1.0829                 3.9744                 6.4821
 Frc consts  --      0.0198                 0.2750                 0.5060
 IR Inten    --      0.0824                 1.6409                 2.3175

                      4                      5                      6
                     A'                     A'                     A'
 Frequencies --    653.9676               856.8192               994.2638
 Red. masses --      6.2542                 6.7362                 7.0144
 Frc consts  --      1.5759                 2.9137                 4.0855
 IR Inten    --    159.9988                69.5131               104.5084

                      7                      8                      9
                     A"                     A'                     A'
 Frequencies --   1154.0718              1186.3261              1442.3657
 Red. masses --      1.3048                 1.5717                 1.1564
 Frc consts  --      1.0239                 1.3032                 1.4174
 IR Inten    --      0.9319                 0.2540                 2.4718

                     10                     11                     12
                     A"                     A'                     A'
 Frequencies --   1475.2790              1489.7795              1685.0768
 Red. masses --      1.0458                 1.0494                13.0862
 Frc consts  --      1.3410                 1.3723                21.8928
 IR Inten    --      9.7667                 6.7663               189.5954

                     13                     14                     15
                     A'                     A"                     A'
 Frequencies --   3048.0581              3117.4181              3165.3386
 Red. masses --      1.0303                 1.1062                 1.1045
 Frc consts  --      5.6399                 6.3337                 6.5201
 IR Inten    --     13.0521                16.5616                 5.6569

 - Thermochemistry -
 -------------------
 Temperature   298.150 Kelvin.  Pressure   1.00000 Atm.
 Atom     1 has atomic number  6 and mass  12.00000

 Molecular mass:    61.01638 amu.
 Principal axes and moments of inertia in atomic units:
                           1         2         3
     Eigenvalues --    87.48055 244.95741 321.08203
           X            0.81816  -0.57498   0.00000
           Y            0.57498   0.81816   0.00000
           Z            0.00000  -0.00000   1.00000
 This molecule is an asymmetric top.
 Rotational symmetry number  1.
 Rotational temperatures (Kelvin)      0.99009     0.35359     0.26976
 Rotational constants (GHZ):          20.63020     7.36757     5.62081
 Zero-point vibrational energy     126515.4 (Joules/Mol)
                                   30.23790 (Kcal/Mol)
 Warning -- explicit consideration of   3 degrees of freedom as
           vibrations may cause significant error
 Vibrational temperatures:    253.56   493.08   523.73   940.91  1232.77
          (Kelvin)           1430.52  1660.45  1706.86  2075.24  2122.60
                             2143.46  2424.45  4385.48  4485.27  4554.22

 Zero-point correction=                           0.048187 (Hartree/Particle)
 Thermal correction to Energy=                    0.052625
 Thermal correction to Enthalpy=                  0.053569
 Thermal correction to Gibbs Free Energy=         0.021673
 Sum of electronic and zero-point Energies=           -245.065898
 Sum of electronic and thermal Energies=              -245.061460
 Sum of electronic and thermal Enthalpies=            -245.060516
 Sum of electronic and thermal Free Energies=         -245.092412

                     E (Thermal)             CV                S
                      KCal/Mol        Cal/Mol-Kelvin    Cal/Mol-Kelvin
 Total                   33.023             13.575             67.131
 Electronic               0.000              0.000              0.000
 Translational            0.889              2.981             38.245
 Rotational               0.889              2.981             23.446
 Vibrational             31.245              7.614              5.439
 Vibration     1          0.628              1.872              2.368
 Vibration     2          0.722              1.590              1.200
 Vibration     3          0.738              1.546              1.105

 Optimization completed.
    -- Stationary point found.
 Normal termination of Gaussian 16 at Thu Jun 16 14:09:13 2022.
