 Gaussian 16, Revision B.01,

 ---------------------------------------
 # b3lyp/gen opt freq CPHF(Grid=OneStep)
 ---------------------------------------

 -----------------------------
 methoxylmethyl, B3LYP/pcseg-2
 -----------------------------
 Symbolic Z-matrix:
 Charge =  0 Multiplicity = 2

 SCF Done:  E(UB3LYP) =  -154.433983650     A.U. after   14 cycles
 Optimization completed.
    -- Stationary point found.
 Normal termination of Gaussian 16 at Fri Sep 29 13:52:35 2023.

 ------------------------------------------------------------------
 #N Geom=AllCheck Guess=TCheck SCRF=Check GenChk UB3LYP/ChkBas Freq
 ------------------------------------------------------------------

 Structure from the checkpoint file:  "ch3och2.chk"
 -----------------------------
 methoxylmethyl, B3LYP/pcseg-2
 -----------------------------
 Charge =  0 Multiplicity = 2

 SCF Done:  E(UB3LYP) =  -154.433983650     A.U. after    1 cycles

  Exact polarizability:  38.098  -0.490  28.601   0.119  -0.149  28.105
 Approx polarizability:  44.111  -0.940  38.923   0.038  -0.025  35.856

                      1                      2                      3
                      A                      A                      A
 Frequencies --    159.0084               293.0626               428.8097
 Red. masses --      1.1105                 1.2562                 2.3581
 Frc consts  --      0.0165                 0.0636                 0.2555
 IR Inten    --      2.4279                 4.4790                 4.0670

                      4                      5                      6
                      A                      A                      A
 Frequencies --    526.9298               957.1416              1135.5091
 Red. masses --      1.2902                 4.2105                 1.2857
 Frc consts  --      0.2111                 2.2727                 0.9768
 IR Inten    --     56.2866                35.6480                 7.1427

                      7                      8                      9
                      A                      A                      A
 Frequencies --   1169.7981              1248.7913              1285.5083
 Red. masses --      1.2721                 1.6976                 3.9473
 Frc consts  --      1.0257                 1.5598                 3.8433
 IR Inten    --      2.2296                32.4774               142.3145

                     10                     11                     12
                      A                      A                      A
 Frequencies --   1458.9462              1487.2764              1495.1149
 Red. masses --      1.1010                 1.0499                 1.1348
 Frc consts  --      1.3807                 1.3684                 1.4946
 IR Inten    --      1.9121                 7.3032                 3.7711

                     13                     14                     15
                      A                      A                      A
 Frequencies --   1502.7279              3006.1705              3062.3408
 Red. masses --      1.1137                 1.0346                 1.1049
 Frc consts  --      1.4818                 5.5090                 6.1052
 IR Inten    --     15.4626                54.1420                45.8949

                     16                     17                     18
                      A                      A                      A
 Frequencies --   3118.5512              3135.6515              3267.4899
 Red. masses --      1.0472                 1.0994                 1.1220
 Frc consts  --      6.0007                 6.3690                 7.0575
 IR Inten    --     20.5531                17.4531                10.3219

 - Thermochemistry -
 -------------------
 Temperature   298.150 Kelvin.  Pressure   1.00000 Atm.
 Atom     1 has atomic number  8 and mass  15.99491

 Molecular mass:    45.03404 amu.
 Principal axes and moments of inertia in atomic units:
                           1         2         3
     Eigenvalues --    37.70210 169.34004 194.91349
           X            0.99997   0.00376   0.00730
           Y           -0.00350   0.99939  -0.03481
           Z           -0.00743   0.03479   0.99937
 This molecule is an asymmetric top.
 Rotational symmetry number  1.
 Rotational temperatures (Kelvin)      2.29732     0.51148     0.44437
 Rotational constants (GHZ):          47.86846    10.65750     9.25919
 Zero-point vibrational energy     171896.4 (Joules/Mol)
                                   41.08422 (Kcal/Mol)
 Warning -- explicit consideration of   4 degrees of freedom as
           vibrations may cause significant error
 Vibrational temperatures:    228.78   421.65   616.96   758.13  1377.11
          (Kelvin)           1633.74  1683.08  1796.73  1849.56  2099.10
                             2139.86  2151.14  2162.09  4325.21  4406.03
                             4486.90  4511.50  4701.19

 Zero-point correction=                           0.065472 (Hartree/Particle)
 Thermal correction to Energy=                    0.069979
 Thermal correction to Enthalpy=                  0.070923
 Thermal correction to Gibbs Free Energy=         0.039439
 Sum of electronic and zero-point Energies=           -154.368512
 Sum of electronic and thermal Energies=              -154.364005
 Sum of electronic and thermal Enthalpies=            -154.363060
 Sum of electronic and thermal Free Energies=         -154.394545

                     E (Thermal)             CV                S
                      KCal/Mol        Cal/Mol-Kelvin    Cal/Mol-Kelvin
 Total                   43.912             13.688             66.264
 Electronic               0.000              0.000              1.377
 Translational            0.889              2.981             37.340
 Rotational               0.889              2.981             21.747
 Vibrational             42.135              7.726              5.799
 Vibration     1          0.621              1.893              2.562
 Vibration     2          0.688              1.687              1.456
 Vibration     3          0.790              1.408              0.863
 Vibration     4          0.882              1.190              0.594

                           ! Non-Optimized Parameters !
 Normal termination of Gaussian 16 at Fri Sep 29 13:57:13 2023.
 Gaussian 16:  ES64L-G16RevB.01 20-Dec-2017

 ---------------------------------
 # rohf/gen geom=check guess=check
 ---------------------------------

 --------------------------------
 methoxylmethyl, ROHF/cc-pVTZ-F12
 --------------------------------
 Structure from the checkpoint file:  "ch3och2.chk"
 Charge =  0 Multiplicity = 2

                         Standard orientation:
 ---------------------------------------------------------------------
 Center     Atomic      Atomic             Coordinates (Angstroms)
 Number     Number       Type             X           Y           Z
 ---------------------------------------------------------------------
      1          8           0       -0.092015   -0.538961   -0.035022
      2          6           0        1.139715    0.167444    0.012056
      3          6           0       -1.203403    0.224599    0.061026
      4          1           0        1.931118   -0.562731   -0.132696
      5          1           0        1.265220    0.658399    0.979982
      6          1           0        1.185283    0.917429   -0.782624
      7          1           0       -2.125372   -0.327260   -0.022948
      8          1           0       -1.138001    1.273598   -0.200027
 ---------------------------------------------------------------------

 SCF Done:  E(ROHF) =  -153.505639246     A.U. after   17 cycles

 The electronic state is 2-A.
 Alpha  occ. eigenvalues --  -20.57398 -11.27879 -11.26082  -1.39419  -0.96720
 Alpha  occ. eigenvalues --   -0.83851  -0.66958  -0.65474  -0.63565  -0.54597
 Alpha  occ. eigenvalues --   -0.49708  -0.47878  -0.05003
 Alpha virt. eigenvalues --    0.05144   0.05554   0.06914   0.07177   0.08853
 Alpha virt. eigenvalues --    0.09583   0.10369   0.16328   0.17790   0.19477
 Alpha virt. eigenvalues --    0.20829   0.22915   0.24009   0.24768   0.25116

 Mulliken charges and spin densities:
               1          2
     1  O   -0.394939   0.046873
     2  C   -0.054299  -0.000128
     3  C   -0.130288   0.901200
     4  H    0.121702   0.000020
     5  H    0.097863   0.005481
     6  H    0.084281   0.001675
     7  H    0.159014   0.020221
     8  H    0.116666   0.024658
 Sum of Mulliken charges =  -0.00000   1.00000

 Dipole moment (field-independent basis, Debye):
    X=              0.6944    Y=              1.2026    Z=             -0.2550  Tot=              1.4120
 Quadrupole moment (field-independent basis, Debye-Ang):
   XX=            -16.7301   YY=            -19.8996   ZZ=            -20.4936
   XY=              0.1292   XZ=              0.4479   YZ=             -0.3639

 Normal termination of Gaussian 16 at Fri Sep 29 13:58:28 2023.
