 Gaussian 16, Revision B.01,

 ---------------------------------------
 # b3lyp/gen opt freq CPHF(Grid=OneStep)
 ---------------------------------------

 ----------------------------------
 methyl hypochlorite, B3LYP/pcseg-2
 ----------------------------------
 Symbolic Z-matrix:
 Charge =  0 Multiplicity = 1

 SCF Done:  E(RB3LYP) =  -575.352813377     A.U. after   12 cycles
 Optimization completed.
    -- Stationary point found.
 Normal termination of Gaussian 16 at Fri Sep 29 06:27:52 2023.

 ------------------------------------------------------------------
 #N Geom=AllCheck Guess=TCheck SCRF=Check GenChk RB3LYP/ChkBas Freq
 ------------------------------------------------------------------

 Structure from the checkpoint file:  "ch3ocl.chk"
 ----------------------------------
 methyl hypochlorite, B3LYP/pcseg-2
 ----------------------------------
 Charge =  0 Multiplicity = 1

 SCF Done:  E(RB3LYP) =  -575.352813377     A.U. after    1 cycles

  Exact polarizability:  34.835   8.631  32.509   0.000   0.000  22.614
 Approx polarizability:  45.323  12.626  51.298  -0.000  -0.000  30.674

                      1                      2                      3
                     A"                     A'                     A'
 Frequencies --    244.2698               366.2215               678.6315
 Red. masses --      1.1784                 3.6261                 8.9419
 Frc consts  --      0.0414                 0.2865                 2.4263
 IR Inten    --      2.9798                 3.1053                 4.4685

                      4                      5                      6
                     A'                     A"                     A'
 Frequencies --   1008.2322              1170.4841              1193.4041
 Red. masses --      6.6162                 1.2574                 1.4596
 Frc consts  --      3.9626                 1.0150                 1.2248
 IR Inten    --     42.4640                 1.1514                12.8194

                      7                      8                      9
                     A'                     A"                     A'
 Frequencies --   1455.0103              1462.8456              1506.2533
 Red. masses --      1.1301                 1.0483                 1.0558
 Frc consts  --      1.4096                 1.3217                 1.4114
 IR Inten    --      2.6071                 7.7245                10.9729

                     10                     11                     12
                     A'                     A"                     A'
 Frequencies --   3019.8827              3091.1461              3114.9695
 Red. masses --      1.0280                 1.1078                 1.1043
 Frc consts  --      5.5237                 6.2366                 6.3129
 IR Inten    --     34.1454                31.2817                 8.6384

 - Thermochemistry -
 -------------------
 Temperature   298.150 Kelvin.  Pressure   1.00000 Atm.
 Atom     1 has atomic number  8 and mass  15.99491

 Molecular mass:    65.98724 amu.
 Principal axes and moments of inertia in atomic units:
                           1         2         3
     Eigenvalues --    42.11298 292.81855 323.41304
           X            0.80663  -0.59106   0.00000
           Y            0.59106   0.80663   0.00000
           Z           -0.00000   0.00000   1.00000
 This molecule is an asymmetric top.
 Rotational symmetry number  1.
 Rotational temperatures (Kelvin)      2.05670     0.29579     0.26781
 Rotational constants (GHZ):          42.85475     6.16334     5.58030
 Zero-point vibrational energy     109526.2 (Joules/Mol)
                                   26.17739 (Kcal/Mol)
 Warning -- explicit consideration of   2 degrees of freedom as
           vibrations may cause significant error
 Vibrational temperatures:    351.45   526.91   976.40  1450.62  1684.07
          (Kelvin)           1717.04  2093.44  2104.71  2167.16  4344.94
                             4447.47  4481.75

 Zero-point correction=                           0.041716 (Hartree/Particle)
 Thermal correction to Energy=                    0.045597
 Thermal correction to Enthalpy=                  0.046541
 Thermal correction to Gibbs Free Energy=         0.015752
 Sum of electronic and zero-point Energies=           -575.311097
 Sum of electronic and thermal Energies=              -575.307216
 Sum of electronic and thermal Enthalpies=            -575.306272
 Sum of electronic and thermal Free Energies=         -575.337062

                     E (Thermal)             CV                S
                      KCal/Mol        Cal/Mol-Kelvin    Cal/Mol-Kelvin
 Total                   28.612             11.195             64.802
 Electronic               0.000              0.000              0.000
 Translational            0.889              2.981             38.479
 Rotational               0.889              2.981             22.904
 Vibrational             26.835              5.234              3.419
 Vibration     1          0.660              1.772              1.772
 Vibration     2          0.739              1.542              1.096

 Optimization completed.
    -- Stationary point found.
 Normal termination of Gaussian 16 at Fri Sep 29 06:28:56 2023.
 Gaussian 16:  ES64L-G16RevB.01 20-Dec-2017

 ---------------------------------
 # rohf/gen geom=check guess=check
 ---------------------------------

 -------------------------------------
 methyl hypochlorite, ROHF/cc-pVTZ-F12
 -------------------------------------
 Structure from the checkpoint file:  "ch3ocl.chk"
 Charge =  0 Multiplicity = 1

                         Standard orientation:
 ---------------------------------------------------------------------
 Center     Atomic      Atomic             Coordinates (Angstroms)
 Number     Number       Type             X           Y           Z
 ---------------------------------------------------------------------
      1          8           0        0.000000    0.801016    0.000000
      2         17           0       -0.810833   -0.702084    0.000000
      3          6           0        1.413260    0.618683    0.000000
      4          1           0        1.809959    1.633712    0.000000
      5          1           0        1.747317    0.090749    0.894492
      6          1           0        1.747317    0.090749   -0.894492
 ---------------------------------------------------------------------

 SCF Done:  E(ROHF) =  -573.970593212     A.U. after   13 cycles

 The electronic state is 1-A'.
 Alpha  occ. eigenvalues -- -104.88056 -20.63234 -11.29438 -10.60107  -8.06813
 Alpha  occ. eigenvalues --   -8.06575  -8.06560  -1.40613  -1.07338  -0.92463
 Alpha  occ. eigenvalues --   -0.67003  -0.66024  -0.64799  -0.53146  -0.52358
 Alpha  occ. eigenvalues --   -0.45949  -0.43191
 Alpha virt. eigenvalues --    0.05333   0.05968   0.06857   0.07025   0.07833
 Alpha virt. eigenvalues --    0.11317   0.11618   0.14853   0.16978   0.18882
 Alpha virt. eigenvalues --    0.20939   0.21631   0.22492   0.24290   0.25426

 Mulliken charges and spin densities:
               1          2
     1  O   -0.359609   0.000000
     2  Cl   0.096531   0.000000
     3  C   -0.068165   0.000000
     4  H    0.120465   0.000000
     5  H    0.105389   0.000000
     6  H    0.105389   0.000000
 Sum of Mulliken charges =  -0.00000   0.00000

 Dipole moment (field-independent basis, Debye):
    X=              1.9354    Y=             -0.1414    Z=              0.0000  Tot=              1.9406
 Quadrupole moment (field-independent basis, Debye-Ang):
   XX=            -22.4377   YY=            -24.7092   ZZ=            -25.3189
   XY=              2.0805   XZ=             -0.0000   YZ=             -0.0000

 Normal termination of Gaussian 16 at Fri Sep 29 06:29:13 2023.
