 Gaussian 16, Revision B.01,

 ---------------------------------------
 # b3lyp/gen opt freq CPHF(Grid=OneStep)
 ---------------------------------------

 ---------------------------
 methanethiol, B3LYP/pcseg-2
 ---------------------------
 Symbolic Z-matrix:
 Charge =  0 Multiplicity = 1

 SCF Done:  E(RB3LYP) =  -438.761145140     A.U. after   11 cycles
 Optimization completed.
    -- Stationary point found.
 Normal termination of Gaussian 16 at Fri Sep 29 22:29:38 2023.

 ------------------------------------------------------------------
 #N Geom=AllCheck Guess=TCheck SCRF=Check GenChk RB3LYP/ChkBas Freq
 ------------------------------------------------------------------

 Structure from the checkpoint file:  "ch3sh.chk"
 ---------------------------
 methanethiol, B3LYP/pcseg-2
 ---------------------------
 Charge =  0 Multiplicity = 1

 SCF Done:  E(RB3LYP) =  -438.761145140     A.U. after    1 cycles

  Exact polarizability:  29.415  -1.562  38.436   0.000  -0.000  25.521
 Approx polarizability:  44.116  -2.858  52.331   0.000   0.000  35.202

                      1                      2                      3
                     A"                     A'                     A'
 Frequencies --    231.9449               695.9094               797.0555
 Red. masses --      1.0296                 5.1842                 1.0759
 Frc consts  --      0.0326                 1.4792                 0.4027
 IR Inten    --     14.6855                 1.6408                 0.7032

                      4                      5                      6
                     A"                     A'                     A'
 Frequencies --    971.0234              1097.4515              1359.9309
 Red. masses --      1.1778                 1.2284                 1.1491
 Frc consts  --      0.6543                 0.8717                 1.2521
 IR Inten    --      4.7209                13.1838                 7.7059

                      7                      8                      9
                     A"                     A'                     A'
 Frequencies --   1474.3186              1487.5165              2669.9812
 Red. masses --      1.0530                 1.0500                 1.0386
 Frc consts  --      1.3486                 1.3689                 4.3625
 IR Inten    --      4.5773                 7.9215                 5.8232

                     10                     11                     12
                     A'                     A"                     A'
 Frequencies --   3056.0511              3137.9302              3141.1400
 Red. masses --      1.0292                 1.1081                 1.1040
 Frc consts  --      5.6631                 6.4285                 6.4182
 IR Inten    --     25.7748                 7.5381                 6.8950

 - Thermochemistry -
 -------------------
 Temperature   298.150 Kelvin.  Pressure   1.00000 Atm.
 Atom     1 has atomic number  6 and mass  12.00000

 Molecular mass:    48.00337 amu.
 Principal axes and moments of inertia in atomic units:
                           1         2         3
     Eigenvalues --    17.46144 140.85968 146.86228
           X           -0.03079   0.99953   0.00000
           Y            0.99953   0.03079   0.00000
           Z           -0.00000   0.00000   1.00000
 This molecule is an asymmetric top.
 Rotational symmetry number  1.
 Rotational temperatures (Kelvin)      4.96030     0.61490     0.58976
 Rotational constants (GHZ):         103.35578    12.81233    12.28866
 Zero-point vibrational energy     120345.8 (Joules/Mol)
                                   28.76335 (Kcal/Mol)
 Warning -- explicit consideration of   1 degrees of freedom as
           vibrations may cause significant error
 Vibrational temperatures:    333.72  1001.26  1146.79  1397.09  1578.99
          (Kelvin)           1956.64  2121.22  2140.20  3841.51  4396.98
                             4514.78  4519.40

 Zero-point correction=                           0.045837 (Hartree/Particle)
 Thermal correction to Energy=                    0.049462
 Thermal correction to Enthalpy=                  0.050406
 Thermal correction to Gibbs Free Energy=         0.021590
 Sum of electronic and zero-point Energies=           -438.715308
 Sum of electronic and thermal Energies=              -438.711684
 Sum of electronic and thermal Enthalpies=            -438.710739
 Sum of electronic and thermal Free Energies=         -438.739555

                     E (Thermal)             CV                S
                      KCal/Mol        Cal/Mol-Kelvin    Cal/Mol-Kelvin
 Total                   31.038             10.221             60.648
 Electronic               0.000              0.000              0.000
 Translational            0.889              2.981             37.530
 Rotational               0.889              2.981             20.518
 Vibrational             29.260              4.260              2.600
 Vibration     1          0.653              1.792              1.864

 Optimization completed.
    -- Stationary point found.
 Normal termination of Gaussian 16 at Fri Sep 29 22:30:28 2023.
 Gaussian 16:  ES64L-G16RevB.01 20-Dec-2017

 ---------------------------------
 # rohf/gen geom=check guess=check
 ---------------------------------

 ------------------------------
 methanethiol, ROHF/cc-pVTZ-F12
 ------------------------------
 Structure from the checkpoint file:  "ch3sh.chk"
 Charge =  0 Multiplicity = 1

                         Standard orientation:
 ---------------------------------------------------------------------
 Center     Atomic      Atomic             Coordinates (Angstroms)
 Number     Number       Type             X           Y           Z
 ---------------------------------------------------------------------
      1          6           0       -0.047887    1.158813    0.000000
      2         16           0       -0.047887   -0.667837    0.000000
      3          1           0        1.284474   -0.834899    0.000000
      4          1           0       -1.092571    1.460452    0.000000
      5          1           0        0.430807    1.553478    0.892173
      6          1           0        0.430807    1.553478   -0.892173
 ---------------------------------------------------------------------

 SCF Done:  E(ROHF) =  -437.764756820     A.U. after   11 cycles

 The electronic state is 1-A'.
 Alpha  occ. eigenvalues --  -91.95173 -11.25746  -8.95340  -6.63493  -6.63408
 Alpha  occ. eigenvalues --   -6.63330  -1.03479  -0.86739  -0.60767  -0.59260
 Alpha  occ. eigenvalues --   -0.52814  -0.45935  -0.35759
 Alpha virt. eigenvalues --    0.05171   0.06190   0.07319   0.07807   0.09701
 Alpha virt. eigenvalues --    0.10131   0.10608   0.16843   0.18178   0.20324
 Alpha virt. eigenvalues --    0.20721   0.23507   0.25071   0.33862   0.34316

 Mulliken charges and spin densities:
               1          2
     1  C   -0.298490   0.000000
     2  S    0.011308   0.000000
     3  H    0.014103   0.000000
     4  H    0.087601   0.000000
     5  H    0.092739   0.000000
     6  H    0.092739   0.000000
 Sum of Mulliken charges =  -0.00000   0.00000

 Dipole moment (field-independent basis, Debye):
    X=              0.7551    Y=              1.4932    Z=             -0.0000  Tot=              1.6732
 Quadrupole moment (field-independent basis, Debye-Ang):
   XX=            -19.3554   YY=            -20.5493   ZZ=            -22.8100
   XY=             -1.2987   XZ=             -0.0000   YZ=              0.0000

 Normal termination of Gaussian 16 at Fri Sep 29 22:30:37 2023.
