 Gaussian 16, Revision B.01,
 Gaussian 16:  ES64L-G16RevB.01 20-Dec-2017

 --------------------
 # b3lyp/gen opt freq
 --------------------

 --------------------------
 methysilane, B3LYP/pcseg-2
 --------------------------
 Symbolic Z-matrix:
 Charge =  0 Multiplicity = 1

 SCF Done:  E(RB3LYP) =  -331.269329678     A.U. after   10 cycles
 Optimization completed.
    -- Stationary point found.
 Normal termination of Gaussian 16 at Thu Jun 16 14:38:05 2022.

 ------------------------------------------------------------------
 #N Geom=AllCheck Guess=TCheck SCRF=Check GenChk RB3LYP/ChkBas Freq
 ------------------------------------------------------------------

 Structure from the checkpoint file:  "/wrk/irikura/Gau-13425.chk"
 --------------------------
 methysilane, B3LYP/pcseg-2
 --------------------------
 Charge =  0 Multiplicity = 1

                         Standard orientation:
 ---------------------------------------------------------------------
 Center     Atomic      Atomic             Coordinates (Angstroms)
 Number     Number       Type             X           Y           Z
 ---------------------------------------------------------------------
      1          6           0        0.000000    0.000000   -1.242898
      2         14           0        0.000000    0.000000    0.634156
      3          1           0        0.000000   -1.018914   -1.631910
      4          1           0       -0.882405    0.509457   -1.631910
      5          1           0        0.882405    0.509457   -1.631910
      6          1           0        0.000000    1.387621    1.158312
      7          1           0       -1.201715   -0.693811    1.158312
      8          1           0        1.201715   -0.693811    1.158312
 ---------------------------------------------------------------------

 SCF Done:  E(RB3LYP) =  -331.269329559     A.U. after    2 cycles

 The electronic state is 1-A1.
 Alpha  occ. eigenvalues --  -66.07559 -10.15976  -5.26128  -3.61868  -3.61868
 Alpha  occ. eigenvalues --   -3.61816  -0.70541  -0.52195  -0.41668  -0.41668
 Alpha  occ. eigenvalues --   -0.33769  -0.33769  -0.33062
 Alpha virt. eigenvalues --    0.00407   0.03805   0.04504   0.04504   0.06484
 Alpha virt. eigenvalues --    0.07329   0.07329   0.13070   0.13070   0.15489
 Alpha virt. eigenvalues --    0.15489   0.17568   0.23650   0.27929   0.27929

 Mulliken charges:
               1
     1  C   -0.291671
     2  Si   0.632368
     3  H    0.045221
     4  H    0.045221
     5  H    0.045221
     6  H   -0.158787
     7  H   -0.158787
     8  H   -0.158787
 Sum of Mulliken charges =  -0.00000

 Dipole moment (field-independent basis, Debye):
    X=              0.0000    Y=              0.0000    Z=             -0.7533  Tot=              0.7533
 Quadrupole moment (field-independent basis, Debye-Ang):
   XX=            -23.2561   YY=            -23.2561   ZZ=            -23.5803
   XY=             -0.0000   XZ=             -0.0000   YZ=              0.0000

  Exact polarizability:  39.060   0.000  39.059  -0.000  -0.000  44.682
 Approx polarizability:  52.973  -0.000  52.973  -0.000  -0.000  54.348

                      1                      2                      3
                     A2                      E                      E
 Frequencies --    197.7342               524.3947               524.3947
 Red. masses --      1.0078                 1.0424                 1.0424
 Frc consts  --      0.0232                 0.1689                 0.1689
 IR Inten    --      0.0000                11.5213                11.5214

                      4                      5                      6
                     A1                      E                      E
 Frequencies --    693.3204               889.0797               889.0798
 Red. masses --      3.9726                 1.3195                 1.3195
 Frc consts  --      1.1251                 0.6145                 0.6145
 IR Inten    --     11.9187                60.8738                60.8747

                      7                      8                      9
                     A1                      E                      E
 Frequencies --    953.3136               965.1416               965.1422
 Red. masses --      1.1097                 1.0326                 1.0326
 Frc consts  --      0.5942                 0.5667                 0.5667
 IR Inten    --    236.5081                48.0587                48.0551

                     10                     11                     12
                     A1                      E                      E
 Frequencies --   1294.8682              1464.1679              1464.1680
 Red. masses --      1.2291                 1.0495                 1.0495
 Frc consts  --      1.2142                 1.3257                 1.3257
 IR Inten    --     13.6093                 3.8614                 3.8614

                     13                     14                     15
                      E                      E                     A1
 Frequencies --   2216.9066              2216.9082              2218.6975
 Red. masses --      1.0508                 1.0508                 1.0197
 Frc consts  --      3.0428                 3.0428                 2.9574
 IR Inten    --    144.5257               144.5030                67.8229

                     16                     17                     18
                     A1                      E                      E
 Frequencies --   3034.9947              3107.9654              3107.9655
 Red. masses --      1.0341                 1.1006                 1.1006
 Frc consts  --      5.6122                 6.2640                 6.2640
 IR Inten    --      5.8097                 8.3428                 8.3427

 - Thermochemistry -
 -------------------
 Temperature   298.150 Kelvin.  Pressure   1.00000 Atm.
 Atom     1 has atomic number  6 and mass  12.00000

 Molecular mass:    46.02388 amu.
 Principal axes and moments of inertia in atomic units:
                           1         2         3
     Eigenvalues --    31.99891 165.46549 165.46549
           X            0.00000   0.00000   1.00000
           Y            0.00000   1.00000  -0.00000
           Z            1.00000  -0.00000  -0.00000
 This molecule is a prolate symmetric top.
 Rotational symmetry number  3.
 Rotational temperatures (Kelvin)      2.70678     0.52346     0.52346
 Rotational constants (GHZ):          56.40009    10.90706    10.90706
 Zero-point vibrational energy     159870.4 (Joules/Mol)
                                   38.20994 (Kcal/Mol)
 Warning -- explicit consideration of   3 degrees of freedom as
           vibrations may cause significant error
 Vibrational temperatures:    284.50   754.49   754.49   997.53  1279.19
          (Kelvin)           1279.19  1371.61  1388.62  1388.62  1863.03
                             2106.61  2106.61  3189.63  3189.64  3192.21
                             4366.68  4471.67  4471.67

 Zero-point correction=                           0.060891 (Hartree/Particle)
 Thermal correction to Energy=                    0.065081
 Thermal correction to Enthalpy=                  0.066026
 Thermal correction to Gibbs Free Energy=         0.037059
 Sum of electronic and zero-point Energies=           -331.208438
 Sum of electronic and thermal Energies=              -331.204248
 Sum of electronic and thermal Enthalpies=            -331.203304
 Sum of electronic and thermal Free Energies=         -331.232270

                     E (Thermal)             CV                S
                      KCal/Mol        Cal/Mol-Kelvin    Cal/Mol-Kelvin
 Total                   40.839             13.670             60.965
 Electronic               0.000              0.000              0.000
 Translational            0.889              2.981             37.405
 Rotational               0.889              2.981             19.215
 Vibrational             39.062              7.709              4.345
 Vibration     1          0.637              1.843              2.154
 Vibration     2          0.879              1.196              0.600
 Vibration     3          0.879              1.196              0.600

 Optimization completed.
    -- Stationary point found.
 Normal termination of Gaussian 16 at Thu Jun 16 14:38:27 2022.
