 Gaussian 16, Revision B.01,
 Gaussian 16:  ES64L-G16RevB.01 20-Dec-2017

 --------------------
 # b3lyp/gen opt freq
 --------------------

 ---------------------------
 methanethiol, B3LYP/pcseg-2
 ---------------------------
 Symbolic Z-matrix:
 Charge =  0 Multiplicity = 1

 SCF Done:  E(RB3LYP) =  -438.761088877     A.U. after   11 cycles
 SCF Done:  E(RB3LYP) =  -438.761143138     A.U. after    7 cycles
 SCF Done:  E(RB3LYP) =  -438.761145141     A.U. after    7 cycles
 Optimization completed.
    -- Stationary point found.
 Normal termination of Gaussian 16 at Fri Feb 25 20:48:50 2022.

 ------------------------------------------------------------------
 #N Geom=AllCheck Guess=TCheck SCRF=Check GenChk RB3LYP/ChkBas Freq
 ------------------------------------------------------------------

 Structure from the checkpoint file:  "/wrk/irikura/Gau-23336.chk"
 ---------------------------
 methanethiol, B3LYP/pcseg-2
 ---------------------------
 Charge =  0 Multiplicity = 1

                         Standard orientation:
 ---------------------------------------------------------------------
 Center     Atomic      Atomic             Coordinates (Angstroms)
 Number     Number       Type             X           Y           Z
 ---------------------------------------------------------------------
      1          6           0       -0.047887    1.158813    0.000000
      2         16           0       -0.047887   -0.667837    0.000000
      3          1           0        1.284474   -0.834899    0.000000
      4          1           0       -1.092571    1.460452    0.000000
      5          1           0        0.430807    1.553478    0.892173
      6          1           0        0.430807    1.553478   -0.892173
 ---------------------------------------------------------------------

 SCF Done:  E(RB3LYP) =  -438.761145141     A.U. after    1 cycles

 The electronic state is 1-A'.
 Alpha  occ. eigenvalues --  -88.83591 -10.20178  -7.92904  -5.89221  -5.88881
 Alpha  occ. eigenvalues --   -5.88272  -0.78135  -0.64908  -0.45367  -0.43530
 Alpha  occ. eigenvalues --   -0.39577  -0.33672  -0.24220
 Alpha virt. eigenvalues --   -0.00513   0.02675   0.05764   0.06949   0.07018
 Alpha virt. eigenvalues --    0.14391   0.15844   0.17525   0.18078   0.24442
 Alpha virt. eigenvalues --    0.27501   0.32880   0.33481   0.33536   0.36909

 Mulliken charges:
               1
     1  C   -0.110557
     2  S   -0.107036
     3  H    0.050622
     4  H    0.045795
     5  H    0.060588
     6  H    0.060588
 Sum of Mulliken charges =  -0.00000

 Dipole moment (field-independent basis, Debye):
    X=              0.7706    Y=              1.4122    Z=              0.0000  Tot=              1.6088
 Quadrupole moment (field-independent basis, Debye-Ang):
   XX=            -19.3554   YY=            -20.5462   ZZ=            -22.6718
   XY=             -1.2816   XZ=              0.0000   YZ=              0.0000

  Exact polarizability:  29.416  -1.562  38.436  -0.000   0.000  25.520
 Approx polarizability:  44.116  -2.858  52.331  -0.000   0.000  35.202

                      1                      2                      3
                     A"                     A'                     A'
 Frequencies --    232.0318               695.9083               797.0508
 Red. masses --      1.0296                 5.1843                 1.0759
 Frc consts  --      0.0327                 1.4792                 0.4027
 IR Inten    --     14.6843                 1.6400                 0.7040

                      4                      5                      6
                     A"                     A'                     A'
 Frequencies --    971.0319              1097.4521              1359.9307
 Red. masses --      1.1778                 1.2284                 1.1491
 Frc consts  --      0.6543                 0.8717                 1.2521
 IR Inten    --      4.7217                13.1855                 7.7071

                      7                      8                      9
                     A"                     A'                     A'
 Frequencies --   1474.3184              1487.5174              2669.9545
 Red. masses --      1.0530                 1.0500                 1.0386
 Frc consts  --      1.3486                 1.3689                 4.3624
 IR Inten    --      4.5770                 7.9221                 5.8296

                     10                     11                     12
                     A'                     A"                     A'
 Frequencies --   3056.0495              3137.9264              3141.1416
 Red. masses --      1.0292                 1.1081                 1.1040
 Frc consts  --      5.6631                 6.4285                 6.4182
 IR Inten    --     25.7774                 7.5401                 6.8942

 - Thermochemistry -
 -------------------
 Temperature   298.150 Kelvin.  Pressure   1.00000 Atm.
 Atom     1 has atomic number  6 and mass  12.00000

 Molecular mass:    48.00337 amu.
 Principal axes and moments of inertia in atomic units:
                           1         2         3
     Eigenvalues --    17.46145 140.85966 146.86226
           X           -0.03079   0.99953   0.00000
           Y            0.99953   0.03079   0.00000
           Z           -0.00000  -0.00000   1.00000
 This molecule is an asymmetric top.
 Rotational symmetry number  1.
 Rotational temperatures (Kelvin)      4.96029     0.61490     0.58976
 Rotational constants (GHZ):         103.35574    12.81234    12.28867
 Zero-point vibrational energy     120346.2 (Joules/Mol)
                                   28.76343 (Kcal/Mol)
 Warning -- explicit consideration of   1 degrees of freedom as
           vibrations may cause significant error
 Vibrational temperatures:    333.84  1001.26  1146.78  1397.10  1578.99
          (Kelvin)           1956.64  2121.22  2140.21  3841.47  4396.97
                             4514.78  4519.40

 Zero-point correction=                           0.045837 (Hartree/Particle)
 Thermal correction to Energy=                    0.049462
 Thermal correction to Enthalpy=                  0.050406
 Thermal correction to Gibbs Free Energy=         0.021590
 Sum of electronic and zero-point Energies=           -438.715308
 Sum of electronic and thermal Energies=              -438.711684
 Sum of electronic and thermal Enthalpies=            -438.710739
 Sum of electronic and thermal Free Energies=         -438.739555

                     E (Thermal)             CV                S
                      KCal/Mol        Cal/Mol-Kelvin    Cal/Mol-Kelvin
 Total                   31.038             10.221             60.648
 Electronic               0.000              0.000              0.000
 Translational            0.889              2.981             37.530
 Rotational               0.889              2.981             20.518
 Vibrational             29.260              4.259              2.599
 Vibration     1          0.653              1.792              1.863

 Optimization completed.
    -- Stationary point found.
 Normal termination of Gaussian 16 at Fri Feb 25 20:49:22 2022.
