 Gaussian 16, Revision B.01,

 ---------------------------------------
 # b3lyp/gen opt freq CPHF(Grid=OneStep)
 ---------------------------------------

 --------------------------
 methysilane, B3LYP/pcseg-2
 --------------------------
 Symbolic Z-matrix:
 Charge =  0 Multiplicity = 1

 SCF Done:  E(RB3LYP) =  -331.269329678     A.U. after   10 cycles
 Optimization completed.
    -- Stationary point found.
 Normal termination of Gaussian 16 at Sat Sep 30 00:02:23 2023.

 ------------------------------------------------------------------
 #N Geom=AllCheck Guess=TCheck SCRF=Check GenChk RB3LYP/ChkBas Freq
 ------------------------------------------------------------------

 Structure from the checkpoint file:  "ch3sih3.chk"
 --------------------------
 methysilane, B3LYP/pcseg-2
 --------------------------
 Charge =  0 Multiplicity = 1

 SCF Done:  E(RB3LYP) =  -331.269329559     A.U. after    2 cycles

  Exact polarizability:  39.060  -0.000  39.060   0.000   0.000  44.682
 Approx polarizability:  52.973  -0.000  52.973  -0.000  -0.000  54.348

                      1                      2                      3
                     A2                      E                      E
 Frequencies --    197.7072               524.3528               524.3529
 Red. masses --      1.0078                 1.0424                 1.0424
 Frc consts  --      0.0232                 0.1689                 0.1689
 IR Inten    --      0.0000                11.5230                11.5229

                      4                      5                      6
                     A1                      E                      E
 Frequencies --    693.3277               889.0783               889.0784
 Red. masses --      3.9725                 1.3195                 1.3195
 Frc consts  --      1.1251                 0.6145                 0.6145
 IR Inten    --     11.9146                60.8795                60.8797

                      7                      8                      9
                     A1                      E                      E
 Frequencies --    953.3088               965.1361               965.1362
 Red. masses --      1.1097                 1.0326                 1.0326
 Frc consts  --      0.5942                 0.5667                 0.5667
 IR Inten    --    236.5206                48.0580                48.0583

                     10                     11                     12
                     A1                      E                      E
 Frequencies --   1294.8662              1464.1655              1464.1655
 Red. masses --      1.2291                 1.0495                 1.0495
 Frc consts  --      1.2142                 1.3256                 1.3256
 IR Inten    --     13.6095                 3.8609                 3.8609

                     13                     14                     15
                      E                      E                     A1
 Frequencies --   2216.9220              2216.9221              2218.7104
 Red. masses --      1.0508                 1.0508                 1.0197
 Frc consts  --      3.0428                 3.0428                 2.9574
 IR Inten    --    144.5043               144.5029                67.8071

                     16                     17                     18
                     A1                      E                      E
 Frequencies --   3034.9938              3107.9640              3107.9641
 Red. masses --      1.0341                 1.1006                 1.1006
 Frc consts  --      5.6122                 6.2640                 6.2640
 IR Inten    --      5.8100                 8.3428                 8.3428

 - Thermochemistry -
 -------------------
 Temperature   298.150 Kelvin.  Pressure   1.00000 Atm.
 Atom     1 has atomic number  6 and mass  12.00000

 Molecular mass:    46.02388 amu.
 Principal axes and moments of inertia in atomic units:
                           1         2         3
     Eigenvalues --    31.99891 165.46549 165.46549
           X            0.00000   0.86378  -0.50387
           Y            0.00000   0.50387   0.86378
           Z            1.00000  -0.00000  -0.00000
 This molecule is a prolate symmetric top.
 Rotational symmetry number  3.
 Rotational temperatures (Kelvin)      2.70678     0.52346     0.52346
 Rotational constants (GHZ):          56.40009    10.90706    10.90706
 Zero-point vibrational energy     159869.9 (Joules/Mol)
                                   38.20981 (Kcal/Mol)
 Warning -- explicit consideration of   3 degrees of freedom as
           vibrations may cause significant error
 Vibrational temperatures:    284.46   754.43   754.43   997.54  1279.19
          (Kelvin)           1279.19  1371.60  1388.62  1388.62  1863.02
                             2106.61  2106.61  3189.66  3189.66  3192.23
                             4366.68  4471.67  4471.67

 Zero-point correction=                           0.060891 (Hartree/Particle)
 Thermal correction to Energy=                    0.065081
 Thermal correction to Enthalpy=                  0.066025
 Thermal correction to Gibbs Free Energy=         0.037059
 Sum of electronic and zero-point Energies=           -331.208438
 Sum of electronic and thermal Energies=              -331.204248
 Sum of electronic and thermal Enthalpies=            -331.203304
 Sum of electronic and thermal Free Energies=         -331.232271

                     E (Thermal)             CV                S
                      KCal/Mol        Cal/Mol-Kelvin    Cal/Mol-Kelvin
 Total                   40.839             13.671             60.965
 Electronic               0.000              0.000              0.000
 Translational            0.889              2.981             37.405
 Rotational               0.889              2.981             19.215
 Vibrational             39.062              7.709              4.345
 Vibration     1          0.637              1.843              2.154
 Vibration     2          0.879              1.196              0.600
 Vibration     3          0.879              1.196              0.600

 Optimization completed.
    -- Stationary point found.
 Normal termination of Gaussian 16 at Sat Sep 30 00:03:43 2023.
 Gaussian 16:  ES64L-G16RevB.01 20-Dec-2017

 ---------------------------------
 # rohf/gen geom=check guess=check
 ---------------------------------

 -----------------------------
 methysilane, ROHF/cc-pVTZ-F12
 -----------------------------
 Structure from the checkpoint file:  "ch3sih3.chk"
 Charge =  0 Multiplicity = 1

                         Standard orientation:
 ---------------------------------------------------------------------
 Center     Atomic      Atomic             Coordinates (Angstroms)
 Number     Number       Type             X           Y           Z
 ---------------------------------------------------------------------
      1          6           0        0.000000    0.000000   -1.242898
      2         14           0        0.000000    0.000000    0.634156
      3          1           0        0.000000   -1.018914   -1.631910
      4          1           0       -0.882405    0.509457   -1.631910
      5          1           0        0.882405    0.509457   -1.631910
      6          1           0        0.000000    1.387621    1.158312
      7          1           0       -1.201715   -0.693811    1.158312
      8          1           0        1.201715   -0.693811    1.158312
 ---------------------------------------------------------------------

 SCF Done:  E(ROHF) =  -330.331811958     A.U. after   10 cycles

 The electronic state is 1-A1.
 Alpha  occ. eigenvalues --  -68.76284 -11.20833  -6.11130  -4.21770  -4.21770
 Alpha  occ. eigenvalues --   -4.21731  -0.94929  -0.69762  -0.56485  -0.56485
 Alpha  occ. eigenvalues --   -0.46860  -0.46860  -0.45591
 Alpha virt. eigenvalues --    0.03756   0.04977   0.04977   0.04989   0.09128
 Alpha virt. eigenvalues --    0.09559   0.09559   0.13763   0.15134   0.15134
 Alpha virt. eigenvalues --    0.17795   0.20913   0.20913   0.23470   0.25688

 Mulliken charges and spin densities:
               1          2
     1  C   -0.429741   0.000000
     2  Si   0.978303   0.000000
     3  H    0.062861   0.000000
     4  H    0.062861   0.000000
     5  H    0.062861   0.000000
     6  H   -0.245715   0.000000
     7  H   -0.245715   0.000000
     8  H   -0.245715   0.000000
 Sum of Mulliken charges =  -0.00000   0.00000

 Dipole moment (field-independent basis, Debye):
    X=              0.0000    Y=              0.0000    Z=             -0.7325  Tot=              0.7325
 Quadrupole moment (field-independent basis, Debye-Ang):
   XX=            -23.2769   YY=            -23.2769   ZZ=            -23.6647
   XY=             -0.0000   XZ=              0.0000   YZ=              0.0000

 Normal termination of Gaussian 16 at Sat Sep 30 00:03:58 2023.
