 Gaussian 16, Revision B.01,
 Gaussian 16:  ES64L-G16RevB.01 20-Dec-2017

 --------------------
 # b3lyp/gen opt freq
 --------------------

 ------------------
 CH4, B3LYP/pcseg-2
 ------------------
 Symbolic Z-matrix:
 Charge =  0 Multiplicity = 1

 SCF Done:  E(RB3LYP) =  -40.5165541281     A.U. after    8 cycles
 SCF Done:  E(RB3LYP) =  -40.5392179536     A.U. after    8 cycles
 SCF Done:  E(RB3LYP) =  -40.5395720801     A.U. after    8 cycles
 Optimization completed.
    -- Stationary point found.
 Normal termination of Gaussian 16 at Tue Feb  1 13:46:23 2022.

 ------------------------------------------------------------------
 #N Geom=AllCheck Guess=TCheck SCRF=Check GenChk RB3LYP/ChkBas Freq
 ------------------------------------------------------------------

 Structure from the checkpoint file:  "/wrk/irikura/Gau-18099.chk"
 ------------------
 CH4, B3LYP/pcseg-2
 ------------------
 Charge =  0 Multiplicity = 1

                         Standard orientation:
 ---------------------------------------------------------------------
 Center     Atomic      Atomic             Coordinates (Angstroms)
 Number     Number       Type             X           Y           Z
 ---------------------------------------------------------------------
      1          6           0        0.000000    0.000000    0.000000
      2          1           0        0.628310    0.628310    0.628310
      3          1           0       -0.628310   -0.628310    0.628310
      4          1           0       -0.628310    0.628310   -0.628310
      5          1           0        0.628310   -0.628310   -0.628310
 ---------------------------------------------------------------------

 SCF Done:  E(RB3LYP) =  -40.5395720801     A.U. after    1 cycles

 The electronic state is 1-A1.
 Alpha  occ. eigenvalues --  -10.15371  -0.69656  -0.39572  -0.39572  -0.39572
 Alpha virt. eigenvalues --    0.01933   0.08774   0.08774   0.08774   0.16077
 Alpha virt. eigenvalues --    0.16077   0.16077   0.34629   0.35996   0.35996
 Alpha virt. eigenvalues --    0.35996   0.45376   0.58167   0.58167   0.91770

 Mulliken charges:
               1
     1  C   -0.115663
     2  H    0.028916
     3  H    0.028916
     4  H    0.028916
     5  H    0.028916
 Sum of Mulliken charges =  -0.00000

 Dipole moment (field-independent basis, Debye):
    X=              0.0000    Y=              0.0000    Z=             -0.0000  Tot=              0.0000
 Quadrupole moment (field-independent basis, Debye-Ang):
   XX=             -8.5011   YY=             -8.5011   ZZ=             -8.5011
   XY=             -0.0000   XZ=              0.0000   YZ=              0.0000

  Exact polarizability:  15.378  -0.000  15.378  -0.000  -0.000  15.378
 Approx polarizability:  18.997  -0.000  18.997  -0.000   0.000  18.997

                      1                      2                      3
                     T2                     T2                     T2
 Frequencies --   1340.4023              1340.4023              1340.4023
 Red. masses --      1.1798                 1.1798                 1.1798
 Frc consts  --      1.2489                 1.2489                 1.2489
 IR Inten    --     13.3937                13.3937                13.3937

                      4                      5                      6
                      E                      E                     A1
 Frequencies --   1556.0312              1556.0312              3031.1565
 Red. masses --      1.0078                 1.0078                 1.0078
 Frc consts  --      1.4377                 1.4377                 5.4557
 IR Inten    --      0.0000                 0.0000                 0.0000

                      7                      8                      9
                     T2                     T2                     T2
 Frequencies --   3134.8652              3134.8652              3134.8652
 Red. masses --      1.1009                 1.1009                 1.1009
 Frc consts  --      6.3744                 6.3744                 6.3744
 IR Inten    --     23.0713                23.0713                23.0713

 - Thermochemistry -
 -------------------
 Temperature   298.150 Kelvin.  Pressure   1.00000 Atm.
 Atom     1 has atomic number  6 and mass  12.00000

 Molecular mass:    16.03130 amu.
 Principal axes and moments of inertia in atomic units:
                           1         2         3
     Eigenvalues --    11.36633  11.36633  11.36633
           X           -0.52042   0.85371  -0.01838
           Y            0.84499   0.51176  -0.15526
           Z            0.12314   0.09633   0.98770
 This molecule is a spherical top.
 Rotational symmetry number 12.
 Rotational temperatures (Kelvin)      7.62022     7.62022     7.62022
 Rotational constants (GHZ):         158.77953   158.77953   158.77953
 Zero-point vibrational energy     117048.7 (Joules/Mol)
                                   27.97532 (Kcal/Mol)
 Vibrational temperatures:   1928.54  1928.54  1928.54  2238.78  2238.78
          (Kelvin)           4361.16  4510.37  4510.37  4510.37

 Zero-point correction=                           0.044582 (Hartree/Particle)
 Thermal correction to Energy=                    0.047450
 Thermal correction to Enthalpy=                  0.048395
 Thermal correction to Gibbs Free Energy=         0.027271
 Sum of electronic and zero-point Energies=            -40.494991
 Sum of electronic and thermal Energies=               -40.492122
 Sum of electronic and thermal Enthalpies=             -40.491178
 Sum of electronic and thermal Free Energies=          -40.512302

                     E (Thermal)             CV                S
                      KCal/Mol        Cal/Mol-Kelvin    Cal/Mol-Kelvin
 Total                   29.776              6.473             44.459
 Electronic               0.000              0.000              0.000
 Translational            0.889              2.981             34.261
 Rotational               0.889              2.981             10.110
 Vibrational             27.998              0.512              0.088

 Optimization completed.
    -- Stationary point found.
 Normal termination of Gaussian 16 at Tue Feb  1 13:46:51 2022.
