 Gaussian 16, Revision B.01,
 Gaussian 16:  ES64L-G16RevB.01 20-Dec-2017

 --------------------
 # b3lyp/gen opt freq
 --------------------

 --------------------------
 methylidyne, B3LYP/pcseg-2
 --------------------------
 Symbolic Z-matrix:
 Charge =  0 Multiplicity = 2

 SCF Done:  E(UB3LYP) =  -38.4969384449     A.U. after   10 cycles
 SCF Done:  E(UB3LYP) =  -38.4972038780     A.U. after    8 cycles
 SCF Done:  E(UB3LYP) =  -38.4972068594     A.U. after    7 cycles
 Optimization completed.
    -- Stationary point found.
 Normal termination of Gaussian 16 at Wed Jun 15 10:28:39 2022.

 ------------------------------------------------------------------
 #N Geom=AllCheck Guess=TCheck SCRF=Check GenChk UB3LYP/ChkBas Freq
 ------------------------------------------------------------------

 Structure from the checkpoint file:  "/wrk/irikura/Gau-3415.chk"
 --------------------------
 methylidyne, B3LYP/pcseg-2
 --------------------------
 Charge =  0 Multiplicity = 2

                         Standard orientation:
 ---------------------------------------------------------------------
 Center     Atomic      Atomic             Coordinates (Angstroms)
 Number     Number       Type             X           Y           Z
 ---------------------------------------------------------------------
      1          1           0        0.000000    0.000000   -0.962227
      2          6           0        0.000000    0.000000    0.160371
 ---------------------------------------------------------------------

 SCF Done:  E(UB3LYP) =  -38.4972068594     A.U. after    1 cycles

 Unable to determine electronic state:  an orbital has unidentified symmetry.
 Alpha  occ. eigenvalues --  -10.28324  -0.65317  -0.32698  -0.26239
 Alpha virt. eigenvalues --   -0.15152   0.02741   0.17304   0.17923   0.18789
 Alpha virt. eigenvalues --    0.21562   0.31217   0.69280   0.69599   0.91377
 Alpha virt. eigenvalues --    0.92074   1.00246   1.08414   1.18819   1.21081

  Beta  occ. eigenvalues --  -10.26786  -0.61106  -0.30636
  Beta virt. eigenvalues --   -0.13570  -0.09152   0.03088   0.18319   0.19270
  Beta virt. eigenvalues --    0.21282   0.22550   0.32287   0.69724   0.71908
  Beta virt. eigenvalues --    0.96538   0.96973   1.01553   1.09532   1.21868

 Mulliken charges and spin densities:
               1          2
     1  H    0.032974  -0.015375
     2  C   -0.032974   1.015375
 Sum of Mulliken charges =   0.00000   1.00000

 Dipole moment (field-independent basis, Debye):
    X=              0.0000    Y=              0.0000    Z=             -1.5384  Tot=              1.5384
 Quadrupole moment (field-independent basis, Debye-Ang):
   XX=             -5.7332   YY=             -7.8265   ZZ=             -7.8505
   XY=              0.0000   XZ=              0.0000   YZ=              0.0000

  Exact polarizability:  10.063   0.000  11.215  -0.000   0.000  15.427
 Approx polarizability:  13.852  -0.000  11.059  -0.000  -0.000  17.625

                      1
                     SG
 Frequencies --   2828.7345
 Red. masses --      1.0848
 Frc consts  --      5.1144
 IR Inten    --    157.3436

 - Thermochemistry -
 -------------------
 Temperature   298.150 Kelvin.  Pressure   1.00000 Atm.
 Atom     1 has atomic number  1 and mass   1.00783

 Molecular mass:    13.00783 amu.
 Principal axes and moments of inertia in atomic units:
                           1         2         3
     Eigenvalues --     0.00000   4.18416   4.18416
           X            0.00000  -0.00000   1.00000
           Y            0.00000   1.00000   0.00000
           Z            1.00000   0.00000   0.00000
 This molecule is a prolate symmetric top.
 Rotational symmetry number  1.
 Rotational temperature (Kelvin)     20.70046
 Rotational constant (GHZ):         431.327505
 Zero-point vibrational energy      16919.6 (Joules/Mol)
                                    4.04388 (Kcal/Mol)
 Vibrational temperatures:   4069.92
          (Kelvin)

 Zero-point correction=                           0.006444 (Hartree/Particle)
 Thermal correction to Energy=                    0.008805
 Thermal correction to Enthalpy=                  0.009749
 Thermal correction to Gibbs Free Energy=        -0.010351
 Sum of electronic and zero-point Energies=            -38.490763
 Sum of electronic and thermal Energies=               -38.488402
 Sum of electronic and thermal Enthalpies=             -38.487458
 Sum of electronic and thermal Free Energies=          -38.507558

                     E (Thermal)             CV                S
                      KCal/Mol        Cal/Mol-Kelvin    Cal/Mol-Kelvin
 Total                    5.525              4.968             42.304
 Electronic               0.000              0.000              1.377
 Translational            0.889              2.981             33.638
 Rotational               0.592              1.987              7.288
 Vibrational              4.044              0.000              0.000

 Optimization completed.
    -- Stationary point found.
 Normal termination of Gaussian 16 at Wed Jun 15 10:28:46 2022.
