 Gaussian 16, Revision B.01,
 Gaussian 16:  ES64L-G16RevB.01 20-Dec-2017

 --------------------
 # b3lyp/gen opt freq
 --------------------

 ---------------------------
 2-cyanovinyl, B3LYP/pcseg-2
 ---------------------------
 Symbolic Z-matrix:
 Charge =  0 Multiplicity = 2

 SCF Done:  E(UB3LYP) =  -170.210868452     A.U. after   19 cycles
 SCF Done:  E(UB3LYP) =  -170.210975884     A.U. after   12 cycles
 SCF Done:  E(UB3LYP) =  -170.210977685     A.U. after   11 cycles
 SCF Done:  E(UB3LYP) =  -170.210978086     A.U. after    9 cycles
 Optimization completed.
    -- Stationary point found.
 Normal termination of Gaussian 16 at Sat Jun 18 12:33:40 2022.

 ------------------------------------------------------------------
 #N Geom=AllCheck Guess=TCheck SCRF=Check GenChk UB3LYP/ChkBas Freq
 ------------------------------------------------------------------

 Structure from the checkpoint file:  "/wrk/irikura/Gau-9277.chk"
 ---------------------------
 2-cyanovinyl, B3LYP/pcseg-2
 ---------------------------
 Charge =  0 Multiplicity = 2

                         Standard orientation:
 ---------------------------------------------------------------------
 Center     Atomic      Atomic             Coordinates (Angstroms)
 Number     Number       Type             X           Y           Z
 ---------------------------------------------------------------------
      1          6           0       -0.130171   -1.702165    0.000000
      2          6           0        0.588539   -0.605206    0.000000
      3          6           0        0.000000    0.699905    0.000000
      4          1           0       -1.168169   -1.990210    0.000000
      5          1           0        1.674172   -0.642462    0.000000
      6          7           0       -0.465173    1.753924    0.000000
 ---------------------------------------------------------------------

 SCF Done:  E(UB3LYP) =  -170.210978086     A.U. after    1 cycles

 The electronic state is 2-A'.
 Alpha  occ. eigenvalues --  -14.32945 -10.25231 -10.24445 -10.22878  -0.92749
 Alpha  occ. eigenvalues --   -0.83810  -0.66273  -0.56230  -0.50030  -0.40079
 Alpha  occ. eigenvalues --   -0.38460  -0.35815  -0.31486  -0.29371
 Alpha virt. eigenvalues --   -0.07729   0.00227   0.02576   0.03216   0.07854
 Alpha virt. eigenvalues --    0.08064   0.14534   0.14540   0.15937   0.17654
 Alpha virt. eigenvalues --    0.20989   0.21100   0.23718   0.23866   0.26182

  Beta  occ. eigenvalues --  -14.32986 -10.24605 -10.23537 -10.22690  -0.92686
  Beta  occ. eigenvalues --   -0.82423  -0.63843  -0.55109  -0.48792  -0.40043
  Beta  occ. eigenvalues --   -0.38306  -0.35568  -0.30785
  Beta virt. eigenvalues --   -0.12872  -0.06507   0.00463   0.02959   0.03469
  Beta virt. eigenvalues --    0.07980   0.08290   0.14817   0.15044   0.17553
  Beta virt. eigenvalues --    0.18298   0.21308   0.21636   0.24060   0.24080

 Mulliken charges and spin densities:
               1          2
     1  C   -0.043522   1.039889
     2  C   -0.047719  -0.141475
     3  C    0.071637   0.066024
     4  H    0.095213   0.017425
     5  H    0.086004   0.044068
     6  N   -0.161613  -0.025931
 Sum of Mulliken charges =   0.00000   1.00000

 Dipole moment (field-independent basis, Debye):
    X=              0.8599    Y=             -3.1788    Z=              0.0000  Tot=              3.2930
 Quadrupole moment (field-independent basis, Debye-Ang):
   XX=            -20.6012   YY=            -28.2050   ZZ=            -24.1571
   XY=              3.3560   XZ=              0.0000   YZ=             -0.0000

  Exact polarizability:  32.802  -0.599  58.314  -0.000  -0.000  23.296
 Approx polarizability:  47.933  -1.550  97.567  -0.000   0.000  32.031

                      1                      2                      3
                     A'                     A"                     A'
 Frequencies --    227.2153               379.8512               540.3992
 Red. masses --      4.2433                 4.2246                 3.3060
 Frc consts  --      0.1291                 0.3591                 0.5688
 IR Inten    --      6.1504                 5.0671                 3.2828

                      4                      5                      6
                     A"                     A'                     A"
 Frequencies --    732.5488               840.7433               872.8536
 Red. masses --      2.1417                 1.9607                 1.1539
 Frc consts  --      0.6772                 0.8166                 0.5180
 IR Inten    --      4.8913                17.5454                67.2979

                      7                      8                      9
                     A'                     A'                     A'
 Frequencies --    978.9199              1264.5100              1634.6251
 Red. masses --      3.6988                 1.1660                 7.0539
 Frc consts  --      2.0884                 1.0985                11.1049
 IR Inten    --     14.7212                 0.1312                 0.3529

                     10                     11                     12
                     A'                     A'                     A'
 Frequencies --   2327.3906              3125.6883              3257.8654
 Red. masses --     12.6279                 1.0851                 1.1033
 Frc consts  --     40.3014                 6.2464                 6.8994
 IR Inten    --      9.2679                 1.2658                 5.8464

 - Thermochemistry -
 -------------------
 Temperature   298.150 Kelvin.  Pressure   1.00000 Atm.
 Atom     1 has atomic number  6 and mass  12.00000

 Molecular mass:    52.01872 amu.
 Principal axes and moments of inertia in atomic units:
                           1         2         3
     Eigenvalues --    35.38828 335.93240 371.32068
           X           -0.14109   0.99000   0.00000
           Y            0.99000   0.14109   0.00000
           Z           -0.00000  -0.00000   1.00000
 This molecule is an asymmetric top.
 Rotational symmetry number  1.
 Rotational temperatures (Kelvin)      2.44753     0.25783     0.23326
 Rotational constants (GHZ):          50.99827     5.37233     4.86033
 Zero-point vibrational energy      96793.5 (Joules/Mol)
                                   23.13420 (Kcal/Mol)
 Warning -- explicit consideration of   3 degrees of freedom as
           vibrations may cause significant error
 Vibrational temperatures:    326.91   546.52   777.51  1053.97  1209.64
          (Kelvin)           1255.84  1408.45  1819.35  2351.86  3348.60
                             4497.17  4687.34

 Zero-point correction=                           0.036867 (Hartree/Particle)
 Thermal correction to Energy=                    0.041027
 Thermal correction to Enthalpy=                  0.041971
 Thermal correction to Gibbs Free Energy=         0.010423
 Sum of electronic and zero-point Energies=           -170.174111
 Sum of electronic and thermal Energies=              -170.169951
 Sum of electronic and thermal Enthalpies=            -170.169007
 Sum of electronic and thermal Free Energies=         -170.200555

                     E (Thermal)             CV                S
                      KCal/Mol        Cal/Mol-Kelvin    Cal/Mol-Kelvin
 Total                   25.745             12.944             66.400
 Electronic               0.000              0.000              1.377
 Translational            0.889              2.981             37.770
 Rotational               0.889              2.981             23.005
 Vibrational             23.968              6.983              4.247
 Vibration     1          0.651              1.800              1.901
 Vibration     2          0.750              1.513              1.040
 Vibration     3          0.895              1.161              0.564

 Optimization completed.
    -- Stationary point found.
 Normal termination of Gaussian 16 at Sat Jun 18 12:34:17 2022.
