 Gaussian 16, Revision B.01,

 ---------------------------------------
 # b3lyp/gen opt freq CPHF(Grid=OneStep)
 ---------------------------------------

 ---------------------------
 2-cyanovinyl, B3LYP/pcseg-2
 ---------------------------
 Symbolic Z-matrix:
 Charge =  0 Multiplicity = 2

 SCF Done:  E(UB3LYP) =  -170.210978087     A.U. after   19 cycles
 Optimization completed.
    -- Stationary point found.
 Normal termination of Gaussian 16 at Fri Sep 29 06:21:53 2023.

 ------------------------------------------------------------------
 #N Geom=AllCheck Guess=TCheck SCRF=Check GenChk UB3LYP/ChkBas Freq
 ------------------------------------------------------------------

 Structure from the checkpoint file:  "chchcn.chk"
 ---------------------------
 2-cyanovinyl, B3LYP/pcseg-2
 ---------------------------
 Charge =  0 Multiplicity = 2

 SCF Done:  E(UB3LYP) =  -170.210978087     A.U. after    1 cycles

  Exact polarizability:  32.802  -0.598  58.313  -0.000   0.000  23.296
 Approx polarizability:  47.933  -1.550  97.568  -0.000   0.000  32.031

                      1                      2                      3
                     A'                     A"                     A'
 Frequencies --    227.2122               379.8472               540.3990
 Red. masses --      4.2432                 4.2245                 3.3061
 Frc consts  --      0.1291                 0.3591                 0.5688
 IR Inten    --      6.1516                 5.0664                 3.2838

                      4                      5                      6
                     A"                     A'                     A"
 Frequencies --    732.5492               840.7474               872.8486
 Red. masses --      2.1417                 1.9608                 1.1539
 Frc consts  --      0.6772                 0.8166                 0.5180
 IR Inten    --      4.8915                17.5483                67.2994

                      7                      8                      9
                     A'                     A'                     A'
 Frequencies --    978.9207              1264.5093              1634.6256
 Red. masses --      3.6987                 1.1660                 7.0538
 Frc consts  --      2.0883                 1.0985                11.1049
 IR Inten    --     14.7214                 0.1313                 0.3530

                     10                     11                     12
                     A'                     A'                     A'
 Frequencies --   2327.3861              3125.6889              3257.8642
 Red. masses --     12.6279                 1.0851                 1.1033
 Frc consts  --     40.3013                 6.2464                 6.8994
 IR Inten    --      9.2681                 1.2654                 5.8476

 - Thermochemistry -
 -------------------
 Temperature   298.150 Kelvin.  Pressure   1.00000 Atm.
 Atom     1 has atomic number  6 and mass  12.00000

 Molecular mass:    52.01872 amu.
 Principal axes and moments of inertia in atomic units:
                           1         2         3
     Eigenvalues --    35.38828 335.93244 371.32072
           X           -0.14109   0.99000   0.00000
           Y            0.99000   0.14109   0.00000
           Z            0.00000   0.00000   1.00000
 This molecule is an asymmetric top.
 Rotational symmetry number  1.
 Rotational temperatures (Kelvin)      2.44753     0.25783     0.23326
 Rotational constants (GHZ):          50.99827     5.37233     4.86033
 Zero-point vibrational energy      96793.4 (Joules/Mol)
                                   23.13419 (Kcal/Mol)
 Warning -- explicit consideration of   3 degrees of freedom as
           vibrations may cause significant error
 Vibrational temperatures:    326.91   546.52   777.51  1053.97  1209.65
          (Kelvin)           1255.83  1408.45  1819.35  2351.86  3348.59
                             4497.17  4687.34

 Zero-point correction=                           0.036867 (Hartree/Particle)
 Thermal correction to Energy=                    0.041027
 Thermal correction to Enthalpy=                  0.041971
 Thermal correction to Gibbs Free Energy=         0.010423
 Sum of electronic and zero-point Energies=           -170.174111
 Sum of electronic and thermal Energies=              -170.169951
 Sum of electronic and thermal Enthalpies=            -170.169007
 Sum of electronic and thermal Free Energies=         -170.200555

                     E (Thermal)             CV                S
                      KCal/Mol        Cal/Mol-Kelvin    Cal/Mol-Kelvin
 Total                   25.745             12.944             66.400
 Electronic               0.000              0.000              1.377
 Translational            0.889              2.981             37.770
 Rotational               0.889              2.981             23.005
 Vibrational             23.968              6.983              4.247
 Vibration     1          0.651              1.800              1.901
 Vibration     2          0.750              1.513              1.040
 Vibration     3          0.895              1.161              0.564

 Optimization completed.
    -- Stationary point found.
 Normal termination of Gaussian 16 at Fri Sep 29 06:24:08 2023.
 Gaussian 16:  ES64L-G16RevB.01 20-Dec-2017

 ---------------------------------
 # rohf/gen geom=check guess=check
 ---------------------------------

 ------------------------------
 2-cyanovinyl, ROHF/cc-pVTZ-F12
 ------------------------------
 Structure from the checkpoint file:  "chchcn.chk"
 Charge =  0 Multiplicity = 2

                         Standard orientation:
 ---------------------------------------------------------------------
 Center     Atomic      Atomic             Coordinates (Angstroms)
 Number     Number       Type             X           Y           Z
 ---------------------------------------------------------------------
      1          6           0       -0.130171   -1.702165   -0.000000
      2          6           0        0.588539   -0.605206   -0.000000
      3          6           0       -0.000000    0.699905    0.000000
      4          1           0       -1.168169   -1.990210   -0.000000
      5          1           0        1.674172   -0.642462   -0.000000
      6          7           0       -0.465173    1.753924    0.000000
 ---------------------------------------------------------------------

 SCF Done:  E(ROHF) =  -169.182045077     A.U. after   18 cycles

 The electronic state is 2-A'.
 Alpha  occ. eigenvalues --  -15.57938 -11.30138 -11.29924 -11.28489  -1.23139
 Alpha  occ. eigenvalues --   -1.09599  -0.85176  -0.73251  -0.65353  -0.56859
 Alpha  occ. eigenvalues --   -0.52837  -0.47787  -0.40757  -0.12137
 Alpha virt. eigenvalues --    0.03966   0.04777   0.05803   0.06181   0.07994
 Alpha virt. eigenvalues --    0.08882   0.09348   0.10232   0.11403   0.11780
 Alpha virt. eigenvalues --    0.12436   0.16540   0.17658   0.18467   0.19262

 Mulliken charges and spin densities:
               1          2
     1  C   -0.137471   0.935274
     2  C    0.022927   0.004505
     3  C    0.066766   0.016952
     4  H    0.218013   0.028401
     5  H    0.212003   0.011156
     6  N   -0.382238   0.003712
 Sum of Mulliken charges =  -0.00000   1.00000

 Dipole moment (field-independent basis, Debye):
    X=              0.8907    Y=             -3.6320    Z=             -0.0000  Tot=              3.7396
 Quadrupole moment (field-independent basis, Debye-Ang):
   XX=            -20.6696   YY=            -27.8929   ZZ=            -24.4859
   XY=              3.5412   XZ=             -0.0000   YZ=             -0.0000

 Normal termination of Gaussian 16 at Fri Sep 29 06:25:27 2023.
