 Gaussian 16, Revision B.01,
 Gaussian 16:  ES64L-G16RevB.01 20-Dec-2017

 --------------------
 # b3lyp/gen opt freq
 --------------------

 ----------------------------------------
 1,1,2,2-tetrachloroethane, B3LYP/pcseg-2
 ----------------------------------------
 Symbolic Z-matrix:
 Charge =  0 Multiplicity = 1

 SCF Done:  E(RB3LYP) =  -1918.38231555     A.U. after   12 cycles
 SCF Done:  E(RB3LYP) =  -1918.38234975     A.U. after    8 cycles
 SCF Done:  E(RB3LYP) =  -1918.38235022     A.U. after    8 cycles
 SCF Done:  E(RB3LYP) =  -1918.38235124     A.U. after    7 cycles
 Optimization completed.
    -- Stationary point found.
 Normal termination of Gaussian 16 at Fri Jun 17 13:44:00 2022.

 ------------------------------------------------------------------
 #N Geom=AllCheck Guess=TCheck SCRF=Check GenChk RB3LYP/ChkBas Freq
 ------------------------------------------------------------------

 Structure from the checkpoint file:  "/wrk/irikura/Gau-31935.chk"
 ----------------------------------------
 1,1,2,2-tetrachloroethane, B3LYP/pcseg-2
 ----------------------------------------
 Charge =  0 Multiplicity = 1

                         Standard orientation:
 ---------------------------------------------------------------------
 Center     Atomic      Atomic             Coordinates (Angstroms)
 Number     Number       Type             X           Y           Z
 ---------------------------------------------------------------------
      1          6           0        0.231072    0.729506   -0.486800
      2          6           0       -0.231072   -0.729506   -0.486800
      3          1           0        0.864183    0.888717   -1.352116
      4         17           0       -1.186737    1.807887   -0.692447
      5         17           0        1.186737    1.176348    0.943795
      6          1           0       -0.864183   -0.888717   -1.352116
      7         17           0        1.186737   -1.807887   -0.692447
      8         17           0       -1.186737   -1.176348    0.943795
 ---------------------------------------------------------------------

 SCF Done:  E(RB3LYP) =  -1918.38235124     A.U. after    1 cycles

 The electronic state is 1-A.
 Alpha  occ. eigenvalues -- -101.53678-101.53678-101.53400-101.53400 -10.32849
 Alpha  occ. eigenvalues --  -10.32826  -9.48197  -9.48197  -9.47921  -9.47920
 Alpha  occ. eigenvalues --   -7.24393  -7.24393  -7.24130  -7.24130  -7.23463
 Alpha  occ. eigenvalues --   -7.23463  -7.23432  -7.23432  -7.23177  -7.23177
 Alpha  occ. eigenvalues --   -7.23150  -7.23150  -0.95524  -0.89797  -0.84917
 Alpha  occ. eigenvalues --   -0.84288  -0.73386  -0.62896  -0.53716  -0.50815
 Alpha  occ. eigenvalues --   -0.49304  -0.45057  -0.44404  -0.36452  -0.35202
 Alpha  occ. eigenvalues --   -0.34435  -0.34343  -0.32932  -0.32829  -0.32572
 Alpha  occ. eigenvalues --   -0.32198
 Alpha virt. eigenvalues --   -0.03795  -0.03477  -0.00073   0.00529   0.03187
 Alpha virt. eigenvalues --    0.04846   0.08883   0.12049   0.15459   0.17943
 Alpha virt. eigenvalues --    0.19162   0.20939   0.22414   0.23053   0.24854

 Mulliken charges:
               1
     1  C    0.040330
     2  C    0.040330
     3  H    0.125557
     4  Cl  -0.091447
     5  Cl  -0.074441
     6  H    0.125557
     7  Cl  -0.091447
     8  Cl  -0.074441
 Sum of Mulliken charges =  -0.00000

 Dipole moment (field-independent basis, Debye):
    X=             -0.0000    Y=             -0.0000    Z=             -1.7355  Tot=              1.7355
 Quadrupole moment (field-independent basis, Debye-Ang):
   XX=            -63.1428   YY=            -65.4699   ZZ=            -60.6869
   XY=              1.1338   XZ=              0.0000   YZ=             -0.0000

  Exact polarizability:  75.004  -8.209  71.591   0.000   0.000  63.343
 Approx polarizability: 119.455 -15.014 100.315  -0.000  -0.000 102.930

                      1                      2                      3
                      A                      B                      A
 Frequencies --     72.1000               165.3531               170.0488
 Red. masses --     24.5196                21.5538                29.4836
 Frc consts  --      0.0751                 0.3472                 0.5023
 IR Inten    --      0.3966                 1.0257                 0.1345

                      4                      5                      6
                      A                      B                      A
 Frequencies --    233.2016               285.0758               347.2441
 Red. masses --     24.5551                17.6394                23.2033
 Frc consts  --      0.7868                 0.8446                 1.6484
 IR Inten    --      0.1731                 1.6100                 0.4605

                      7                      8                      9
                      B                      A                      B
 Frequencies --    544.4637               638.2586               714.0516
 Red. masses --      8.4199                 8.1745                 9.9766
 Frc consts  --      1.4706                 1.9620                 2.9970
 IR Inten    --     24.2560                31.4245               129.2865

                     10                     11                     12
                      A                      B                      A
 Frequencies --    775.5982               785.2581              1015.8071
 Red. masses --      6.2764                 5.5646                 4.1276
 Frc consts  --      2.2245                 2.0217                 2.5094
 IR Inten    --     48.3357                76.8578                11.8941

                     13                     14                     15
                      B                      A                      A
 Frequencies --   1219.8923              1235.1210              1262.6423
 Red. masses --      1.0542                 1.1232                 1.2164
 Frc consts  --      0.9243                 1.0095                 1.1426
 IR Inten    --     17.7500                 8.9660                 3.8291

                     16                     17                     18
                      B                      B                      A
 Frequencies --   1308.2704              3138.1301              3144.3616
 Red. masses --      1.1903                 1.0866                 1.0874
 Frc consts  --      1.2003                 6.3046                 6.3343
 IR Inten    --     20.2353                 6.4785                 0.0194

 - Thermochemistry -
 -------------------
 Temperature   298.150 Kelvin.  Pressure   1.00000 Atm.
 Atom     1 has atomic number  6 and mass  12.00000

 Molecular mass:   165.89106 amu.
 Principal axes and moments of inertia in atomic units:
                           1         2         3
     Eigenvalues --  1038.116231639.458221926.63111
           X           -0.29060   0.95685   0.00000
           Y            0.95685   0.29060  -0.00000
           Z            0.00000  -0.00000   1.00000
 This molecule is an asymmetric top.
 Rotational symmetry number  2.
 Warning -- assumption of classical behavior for rotation
           may cause significant error
 Rotational temperatures (Kelvin)      0.08343     0.05283     0.04496
 Rotational constants (GHZ):           1.73848     1.10082     0.93673
 Zero-point vibrational energy     102010.8 (Joules/Mol)
                                   24.38117 (Kcal/Mol)
 Warning -- explicit consideration of   7 degrees of freedom as
           vibrations may cause significant error
 Vibrational temperatures:    103.74   237.91   244.66   335.53   410.16
          (Kelvin)            499.61   783.36   918.31  1027.36  1115.91
                             1129.81  1461.52  1755.15  1777.06  1816.66
                             1882.31  4515.07  4524.04

 Zero-point correction=                           0.038854 (Hartree/Particle)
 Thermal correction to Energy=                    0.045714
 Thermal correction to Enthalpy=                  0.046658
 Thermal correction to Gibbs Free Energy=         0.006329
 Sum of electronic and zero-point Energies=          -1918.343497
 Sum of electronic and thermal Energies=             -1918.336638
 Sum of electronic and thermal Enthalpies=           -1918.335693
 Sum of electronic and thermal Free Energies=        -1918.376022

                     E (Thermal)             CV                S
                      KCal/Mol        Cal/Mol-Kelvin    Cal/Mol-Kelvin
 Total                   28.686             22.086             84.878
 Electronic               0.000              0.000              0.000
 Translational            0.889              2.981             41.227
 Rotational               0.889              2.981             28.196
 Vibrational             26.908             16.125             15.455
 Vibration     1          0.598              1.967              4.095
 Vibration     2          0.624              1.885              2.488
 Vibration     3          0.625              1.879              2.435
 Vibration     4          0.654              1.790              1.854
 Vibration     5          0.683              1.701              1.503
 Vibration     6          0.725              1.581              1.179
 Vibration     7          0.900              1.152              0.556

 Optimization completed.
    -- Stationary point found.
 Normal termination of Gaussian 16 at Fri Jun 17 13:45:10 2022.
