 Gaussian 16, Revision B.01,
 Gaussian 16:  ES64L-G16RevB.01 20-Dec-2017

 --------------------
 # b3lyp/gen opt freq
 --------------------

 ------------------------------------
 chlorodifluoromethane, B3LYP/pcseg-2
 ------------------------------------
 Symbolic Z-matrix:
 Charge =  0 Multiplicity = 1

 SCF Done:  E(RB3LYP) =  -698.730238963     A.U. after   12 cycles
 SCF Done:  E(RB3LYP) =  -698.730458583     A.U. after    8 cycles
 SCF Done:  E(RB3LYP) =  -698.730529068     A.U. after    9 cycles
 SCF Done:  E(RB3LYP) =  -698.730532729     A.U. after    7 cycles
 Optimization completed.
    -- Stationary point found.
 Normal termination of Gaussian 16 at Wed Jun 15 20:56:07 2022.

 ------------------------------------------------------------------
 #N Geom=AllCheck Guess=TCheck SCRF=Check GenChk RB3LYP/ChkBas Freq
 ------------------------------------------------------------------

 Structure from the checkpoint file:  "/wrk/irikura/Gau-20831.chk"
 ------------------------------------
 chlorodifluoromethane, B3LYP/pcseg-2
 ------------------------------------
 Charge =  0 Multiplicity = 1

                         Standard orientation:
 ---------------------------------------------------------------------
 Center     Atomic      Atomic             Coordinates (Angstroms)
 Number     Number       Type             X           Y           Z
 ---------------------------------------------------------------------
      1          6           0       -0.568415   -0.093166   -0.000000
      2          1           0       -1.449957    0.541371    0.000000
      3         17           0        0.887759    0.933699    0.000000
      4          9           0       -0.568415   -0.880847    1.088450
      5          9           0       -0.568415   -0.880847   -1.088450
 ---------------------------------------------------------------------

 SCF Done:  E(RB3LYP) =  -698.730532729     A.U. after    1 cycles

 The electronic state is 1-A'.
 Alpha  occ. eigenvalues -- -101.53607 -24.72613 -24.72612 -10.41534  -9.48195
 Alpha  occ. eigenvalues --   -7.24353  -7.23463  -7.23449  -1.30332  -1.24184
 Alpha  occ. eigenvalues --   -0.88398  -0.71311  -0.60221  -0.59434  -0.55738
 Alpha  occ. eigenvalues --   -0.46934  -0.45894  -0.44647  -0.39340  -0.34710
 Alpha  occ. eigenvalues --   -0.34563
 Alpha virt. eigenvalues --   -0.00838   0.02795   0.06483   0.08675   0.12482
 Alpha virt. eigenvalues --    0.21024   0.21433   0.25332   0.28546   0.30055
 Alpha virt. eigenvalues --    0.32920   0.33735   0.38920   0.41840   0.42835

 Mulliken charges:
               1
     1  C    0.529075
     2  H    0.044752
     3  Cl  -0.098669
     4  F   -0.237579
     5  F   -0.237579
 Sum of Mulliken charges =  -0.00000

 Dipole moment (field-independent basis, Debye):
    X=             -1.1409    Y=              0.9849    Z=              0.0000  Tot=              1.5072
 Quadrupole moment (field-independent basis, Debye-Ang):
   XX=            -26.4635   YY=            -29.4985   ZZ=            -30.4997
   XY=             -1.0758   XZ=              0.0000   YZ=             -0.0000

  Exact polarizability:  28.689   6.068  26.629  -0.000  -0.000  22.633
 Approx polarizability:  40.534   9.419  37.427   0.000   0.000  31.816

                      1                      2                      3
                     A"                     A'                     A'
 Frequencies --    360.2374               402.2748               592.2973
 Red. masses --     15.9245                20.0648                14.3684
 Frc consts  --      1.2176                 1.9131                 2.9699
 IR Inten    --      0.5209                 0.2343                 7.0425

                      4                      5                      6
                     A'                     A'                     A"
 Frequencies --    782.2434              1100.4182              1111.9798
 Red. masses --      5.4589                10.4927                 7.9379
 Frc consts  --      1.9681                 7.4860                 5.7830
 IR Inten    --    167.2364               238.3780               255.9784

                      7                      8                      9
                     A'                     A"                     A'
 Frequencies --   1320.0292              1368.3085              3135.5649
 Red. masses --      1.1480                 1.1433                 1.0888
 Frc consts  --      1.1786                 1.2612                 6.3073
 IR Inten    --     66.6130                13.6386                13.5715

 - Thermochemistry -
 -------------------
 Temperature   298.150 Kelvin.  Pressure   1.00000 Atm.
 Atom     1 has atomic number  6 and mass  12.00000

 Molecular mass:    85.97348 amu.
 Principal axes and moments of inertia in atomic units:
                           1         2         3
     Eigenvalues --   177.39116 379.10563 523.22246
           X            0.65192  -0.00000   0.75829
           Y            0.75829  -0.00000  -0.65192
           Z            0.00000   1.00000   0.00000
 This molecule is an asymmetric top.
 Rotational symmetry number  1.
 Rotational temperatures (Kelvin)      0.48827     0.22847     0.16554
 Rotational constants (GHZ):          10.17379     4.76052     3.44928
 Zero-point vibrational energy      60850.2 (Joules/Mol)
                                   14.54354 (Kcal/Mol)
 Warning -- explicit consideration of   3 degrees of freedom as
           vibrations may cause significant error
 Vibrational temperatures:    518.30   578.78   852.18  1125.47  1583.26
          (Kelvin)           1599.89  1899.23  1968.69  4511.38

 Zero-point correction=                           0.023177 (Hartree/Particle)
 Thermal correction to Energy=                    0.026982
 Thermal correction to Enthalpy=                  0.027926
 Thermal correction to Gibbs Free Energy=        -0.004033
 Sum of electronic and zero-point Energies=           -698.707356
 Sum of electronic and thermal Energies=              -698.703551
 Sum of electronic and thermal Enthalpies=            -698.702607
 Sum of electronic and thermal Free Energies=         -698.734566

                     E (Thermal)             CV                S
                      KCal/Mol        Cal/Mol-Kelvin    Cal/Mol-Kelvin
 Total                   16.931             11.516             67.263
 Electronic               0.000              0.000              0.000
 Translational            0.889              2.981             39.268
 Rotational               0.889              2.981             25.068
 Vibrational             15.154              5.554              2.928
 Vibration     1          0.735              1.554              1.121
 Vibration     2          0.768              1.465              0.954
 Vibration     3          0.950              1.048              0.463

 Optimization completed.
    -- Stationary point found.
 Normal termination of Gaussian 16 at Wed Jun 15 20:56:27 2022.
