 Gaussian 16, Revision B.01,

 ---------------------------------------
 # b3lyp/gen opt freq CPHF(Grid=OneStep)
 ---------------------------------------

 ---------------------------------------
 cis-1,2-dichloroethylene, B3LYP/pcseg-2
 ---------------------------------------
 Symbolic Z-matrix:
 Charge =  0 Multiplicity = 1

 SCF Done:  E(RB3LYP) =  -997.894694628     A.U. after   12 cycles
 Optimization completed.
    -- Stationary point found.
 Normal termination of Gaussian 16 at Fri Sep 29 16:55:38 2023.

 ------------------------------------------------------------------
 #N Geom=AllCheck Guess=TCheck SCRF=Check GenChk RB3LYP/ChkBas Freq
 ------------------------------------------------------------------

 Structure from the checkpoint file:  "chclchcl.chk"
 ---------------------------------------
 cis-1,2-dichloroethylene, B3LYP/pcseg-2
 ---------------------------------------
 Charge =  0 Multiplicity = 1

 SCF Done:  E(RB3LYP) =  -997.894694628     A.U. after    1 cycles

  Exact polarizability:  28.596   0.000  63.523   0.000   0.000  47.094
 Approx polarizability:  43.031   0.000  96.575   0.000  -0.000  73.285

                      1                      2                      3
                     A1                     A2                     B2
 Frequencies --    166.1175               423.6196               573.8832
 Red. masses --     26.3324                 3.8123                 9.3610
 Frc consts  --      0.4281                 0.4031                 1.8164
 IR Inten    --      0.2638                 0.0000                 7.5829

                      4                      5                      6
                     A1                     B1                     B2
 Frequencies --    706.6369               713.7870               848.3481
 Red. masses --      9.0575                 1.2298                 4.4608
 Frc consts  --      2.6647                 0.3692                 1.8915
 IR Inten    --     21.7784                62.6717                88.0967

                      7                      8                      9
                     A2                     A1                     B2
 Frequencies --    915.2969              1215.8432              1319.6281
 Red. masses --      1.2552                 1.0444                 1.2256
 Frc consts  --      0.6195                 0.9097                 1.2574
 IR Inten    --      0.0000                 0.0490                28.2680

                     10                     11                     12
                     A1                     B2                     A1
 Frequencies --   1645.8627              3202.9429              3223.4036
 Red. masses --      7.6885                 1.0845                 1.0990
 Frc consts  --     12.2710                 6.5551                 6.7280
 IR Inten    --     42.3902                14.1515                 1.2338

 - Thermochemistry -
 -------------------
 Temperature   298.150 Kelvin.  Pressure   1.00000 Atm.
 Atom     1 has atomic number  6 and mass  12.00000

 Molecular mass:    95.95336 amu.
 Principal axes and moments of inertia in atomic units:
                           1         2         3
     Eigenvalues --   153.68265 737.25078 890.93343
           X            0.00000   0.00000   1.00000
           Y            1.00000   0.00000  -0.00000
           Z            0.00000   1.00000   0.00000
 This molecule is an asymmetric top.
 Rotational symmetry number  2.
 Rotational temperatures (Kelvin)      0.56359     0.11748     0.09722
 Rotational constants (GHZ):          11.74330     2.44793     2.02567
 Zero-point vibrational energy      89453.0 (Joules/Mol)
                                   21.37977 (Kcal/Mol)
 Warning -- explicit consideration of   3 degrees of freedom as
           vibrations may cause significant error
 Vibrational temperatures:    239.01   609.49   825.69  1016.69  1026.98
          (Kelvin)           1220.58  1316.91  1749.33  1898.65  2368.03
                             4608.32  4637.76

 Zero-point correction=                           0.034071 (Hartree/Particle)
 Thermal correction to Energy=                    0.038344
 Thermal correction to Enthalpy=                  0.039288
 Thermal correction to Gibbs Free Energy=         0.006433
 Sum of electronic and zero-point Energies=           -997.860624
 Sum of electronic and thermal Energies=              -997.856351
 Sum of electronic and thermal Enthalpies=            -997.855407
 Sum of electronic and thermal Free Energies=         -997.888262

                     E (Thermal)             CV                S
                      KCal/Mol        Cal/Mol-Kelvin    Cal/Mol-Kelvin
 Total                   24.061             13.404             69.150
 Electronic               0.000              0.000              0.000
 Translational            0.889              2.981             39.595
 Rotational               0.889              2.981             24.738
 Vibrational             22.284              7.442              4.817
 Vibration     1          0.624              1.884              2.479
 Vibration     2          0.786              1.419              0.880
 Vibration     3          0.930              1.088              0.497

 Optimization completed.
    -- Stationary point found.
 Normal termination of Gaussian 16 at Fri Sep 29 16:56:39 2023.
 Gaussian 16:  ES64L-G16RevB.01 20-Dec-2017

 ---------------------------------
 # rohf/gen geom=check guess=check
 ---------------------------------

 ------------------------------------------
 cis-1,2-dichloroethylene, ROHF/cc-pVTZ-F12
 ------------------------------------------
 Structure from the checkpoint file:  "chclchcl.chk"
 Charge =  0 Multiplicity = 1

                         Standard orientation:
 ---------------------------------------------------------------------
 Center     Atomic      Atomic             Coordinates (Angstroms)
 Number     Number       Type             X           Y           Z
 ---------------------------------------------------------------------
      1          6           0       -0.000000    0.662107    0.957182
      2          6           0       -0.000000   -0.662107    0.957182
      3         17           0       -0.000000    1.661129   -0.448843
      4         17           0       -0.000000   -1.661129   -0.448843
      5          1           0       -0.000000    1.209241    1.887237
      6          1           0       -0.000000   -1.209241    1.887237
 ---------------------------------------------------------------------

 SCF Done:  E(ROHF) =  -995.947856916     A.U. after   11 cycles

 The electronic state is 1-A1.
 Alpha  occ. eigenvalues -- -104.85326-104.85326 -11.31609 -11.31430 -10.57818
 Alpha  occ. eigenvalues --  -10.57818  -8.04524  -8.04524  -8.04355  -8.04355
 Alpha  occ. eigenvalues --   -8.04355  -8.04355  -1.19424  -1.13446  -1.00310
 Alpha  occ. eigenvalues --   -0.78422  -0.70014  -0.61858  -0.55175  -0.54824
 Alpha  occ. eigenvalues --   -0.48945  -0.47203  -0.45842  -0.36995
 Alpha virt. eigenvalues --    0.04830   0.05714   0.05921   0.07767   0.08236
 Alpha virt. eigenvalues --    0.09547   0.10829   0.11819   0.12174   0.12395
 Alpha virt. eigenvalues --    0.12970   0.13746   0.15418   0.16271   0.18376

 Mulliken charges and spin densities:
               1          2
     1  C   -0.192381   0.000000
     2  C   -0.192381   0.000000
     3  Cl  -0.030297   0.000000
     4  Cl  -0.030297   0.000000
     5  H    0.222678   0.000000
     6  H    0.222678   0.000000
 Sum of Mulliken charges =  -0.00000   0.00000

 Dipole moment (field-independent basis, Debye):
    X=             -0.0000    Y=              0.0000    Z=              2.1453  Tot=              2.1453
 Quadrupole moment (field-independent basis, Debye-Ang):
   XX=            -38.9874   YY=            -38.1239   ZZ=            -32.8027
   XY=             -0.0000   XZ=             -0.0000   YZ=              0.0000

 Normal termination of Gaussian 16 at Fri Sep 29 16:57:17 2023.
