 Gaussian 16, Revision B.01,
 Gaussian 16:  ES64L-G16RevB.01 20-Dec-2017

 --------------------
 # b3lyp/gen opt freq
 --------------------

 ------------------------------
 formyl chloride, B3LYP/pcseg-2
 ------------------------------
 Symbolic Z-matrix:
 Charge =  0 Multiplicity = 1

 SCF Done:  E(RB3LYP) =  -574.210912353     A.U. after   13 cycles
 SCF Done:  E(RB3LYP) =  -574.210989042     A.U. after    8 cycles
 SCF Done:  E(RB3LYP) =  -574.211008465     A.U. after    9 cycles
 SCF Done:  E(RB3LYP) =  -574.211010195     A.U. after    8 cycles
 Optimization completed.
    -- Stationary point found.
 Normal termination of Gaussian 16 at Thu Jun 16 16:21:00 2022.

 ------------------------------------------------------------------
 #N Geom=AllCheck Guess=TCheck SCRF=Check GenChk RB3LYP/ChkBas Freq
 ------------------------------------------------------------------

 Structure from the checkpoint file:  "/wrk/irikura/Gau-3069.chk"
 ------------------------------
 formyl chloride, B3LYP/pcseg-2
 ------------------------------
 Charge =  0 Multiplicity = 1

                         Standard orientation:
 ---------------------------------------------------------------------
 Center     Atomic      Atomic             Coordinates (Angstroms)
 Number     Number       Type             X           Y           Z
 ---------------------------------------------------------------------
      1          6           0        0.000000    0.803485    0.000000
      2          8           0        1.117368    1.173569    0.000000
      3         17           0       -0.473020   -0.919944    0.000000
      4          1           0       -0.897596    1.429576    0.000000
 ---------------------------------------------------------------------

 SCF Done:  E(RB3LYP) =  -574.211010195     A.U. after    1 cycles

 The electronic state is 1-A'.
 Alpha  occ. eigenvalues -- -101.53386 -19.17974 -10.34055  -9.47950  -7.24007
 Alpha  occ. eigenvalues --   -7.23341  -7.23192  -1.12005  -0.86960  -0.64136
 Alpha  occ. eigenvalues --   -0.52356  -0.49353  -0.46329  -0.34755  -0.34288
 Alpha  occ. eigenvalues --   -0.32487
 Alpha virt. eigenvalues --   -0.07026  -0.00810   0.04427   0.09808   0.12045
 Alpha virt. eigenvalues --    0.15297   0.24654   0.28741   0.29719   0.31978
 Alpha virt. eigenvalues --    0.32550   0.32779   0.40419   0.44393   0.45812

 Mulliken charges:
               1
     1  C    0.302248
     2  O   -0.272339
     3  Cl  -0.105705
     4  H    0.075796
 Sum of Mulliken charges =  -0.00000

 Dipole moment (field-independent basis, Debye):
    X=             -1.7780    Y=              0.7313    Z=              0.0000  Tot=              1.9225
 Quadrupole moment (field-independent basis, Debye-Ang):
   XX=            -25.7570   YY=            -23.5117   ZZ=            -23.4487
   XY=             -2.8798   XZ=              0.0000   YZ=              0.0000

  Exact polarizability:  27.168   7.065  36.506  -0.000  -0.000  16.695
 Approx polarizability:  43.838  15.370  57.867  -0.000  -0.000  24.045

                      1                      2                      3
                     A'                     A'                     A"
 Frequencies --    449.1835               722.2037               950.7447
 Red. masses --     17.2263                 6.3793                 1.5933
 Frc consts  --      2.0478                 1.9604                 0.8485
 IR Inten    --     14.7695               218.7442                 2.0186

                      4                      5                      6
                     A'                     A'                     A'
 Frequencies --   1326.9983              1848.4516              3050.3833
 Red. masses --      1.1117                 9.9100                 1.0977
 Frc consts  --      1.1533                19.9498                 6.0179
 IR Inten    --     32.9013               402.2743                21.5075

 - Thermochemistry -
 -------------------
 Temperature   298.150 Kelvin.  Pressure   1.00000 Atm.
 Atom     1 has atomic number  6 and mass  12.00000

 Molecular mass:    63.97159 amu.
 Principal axes and moments of inertia in atomic units:
                           1         2         3
     Eigenvalues --    22.90316 298.31181 321.21496
           X            0.53640   0.84397   0.00000
           Y            0.84397  -0.53640   0.00000
           Z            0.00000  -0.00000   1.00000
 This molecule is an asymmetric top.
 Rotational symmetry number  1.
 Rotational temperatures (Kelvin)      3.78175     0.29035     0.26964
 Rotational constants (GHZ):          78.79880     6.04985     5.61848
 Zero-point vibrational energy      49931.9 (Joules/Mol)
                                   11.93402 (Kcal/Mol)
 Warning -- explicit consideration of   1 degrees of freedom as
           vibrations may cause significant error
 Vibrational temperatures:    646.27  1039.09  1367.91  1909.25  2659.51
          (Kelvin)           4388.82

 Zero-point correction=                           0.019018 (Hartree/Particle)
 Thermal correction to Energy=                    0.022275
 Thermal correction to Enthalpy=                  0.023219
 Thermal correction to Gibbs Free Energy=        -0.006200
 Sum of electronic and zero-point Energies=           -574.191992
 Sum of electronic and thermal Energies=              -574.188735
 Sum of electronic and thermal Enthalpies=            -574.187791
 Sum of electronic and thermal Free Energies=         -574.217210

                     E (Thermal)             CV                S
                      KCal/Mol        Cal/Mol-Kelvin    Cal/Mol-Kelvin
 Total                   13.978              8.703             61.918
 Electronic               0.000              0.000              0.000
 Translational            0.889              2.981             38.386
 Rotational               0.889              2.981             22.311
 Vibrational             12.200              2.741              1.220
 Vibration     1          0.808              1.363              0.798

 Optimization completed.
    -- Stationary point found.
 Normal termination of Gaussian 16 at Thu Jun 16 16:21:12 2022.
