 Gaussian 16, Revision B.01,

 ---------------------------------------
 # b3lyp/gen opt freq CPHF(Grid=OneStep)
 ---------------------------------------

 -------------------------
 chloroform, B3LYP/pcseg-2
 -------------------------
 Symbolic Z-matrix:
 Charge =  0 Multiplicity = 1

 SCF Done:  E(RB3LYP) =  -1419.42128398     A.U. after   11 cycles
 Optimization completed.
    -- Stationary point found.
 Normal termination of Gaussian 16 at Fri Sep 29 13:15:30 2023.

 ------------------------------------------------------------------
 #N Geom=AllCheck Guess=TCheck SCRF=Check GenChk RB3LYP/ChkBas Freq
 ------------------------------------------------------------------

 Structure from the checkpoint file:  "chcl3.chk"
 -------------------------
 chloroform, B3LYP/pcseg-2
 -------------------------
 Charge =  0 Multiplicity = 1

 SCF Done:  E(RB3LYP) =  -1419.42128398     A.U. after    1 cycles

  Exact polarizability:  52.559  -0.000  52.559  -0.000  -0.000  33.025
 Approx polarizability:  78.848  -0.000  78.848   0.000  -0.000  51.456

                      1                      2                      3
                      E                      E                     A1
 Frequencies --    256.2881               256.2893               361.9361
 Red. masses --     25.9030                25.9030                21.0816
 Frc consts  --      1.0024                 1.0024                 1.6271
 IR Inten    --      0.0002                 0.0002                 0.2298

                      4                      5                      6
                     A1                      E                      E
 Frequencies --    662.8495               730.2967               730.3036
 Red. masses --      8.0397                 9.6703                 9.6703
 Frc consts  --      2.0812                 3.0387                 3.0388
 IR Inten    --      5.5107               179.2196               179.2307

                      7                      8                      9
                      E                      E                     A1
 Frequencies --   1233.3837              1233.3844              3175.4164
 Red. masses --      1.0724                 1.0724                 1.0887
 Frc consts  --      0.9612                 0.9612                 6.4677
 IR Inten    --     28.2811                28.2803                 0.3884

 - Thermochemistry -
 -------------------
 Temperature   298.150 Kelvin.  Pressure   1.00000 Atm.
 Atom     1 has atomic number  6 and mass  12.00000

 Molecular mass:   117.91438 amu.
 Principal axes and moments of inertia in atomic units:
                           1         2         3
     Eigenvalues --   558.54320 558.543201077.30169
           X            0.70812   0.70609   0.00000
           Y           -0.70609   0.70812   0.00000
           Z           -0.00000  -0.00000   1.00000
 This molecule is an oblate symmetric top.
 Rotational symmetry number  3.
 Warning -- assumption of classical behavior for rotation
           may cause significant error
 Rotational temperatures (Kelvin)      0.15507     0.15507     0.08040
 Rotational constants (GHZ):           3.23116     3.23116     1.67524
 Zero-point vibrational energy      51679.6 (Joules/Mol)
                                   12.35171 (Kcal/Mol)
 Warning -- explicit consideration of   3 degrees of freedom as
           vibrations may cause significant error
 Vibrational temperatures:    368.74   368.74   520.75   953.69  1050.73
          (Kelvin)           1050.74  1774.56  1774.57  4568.72

 Zero-point correction=                           0.019684 (Hartree/Particle)
 Thermal correction to Energy=                    0.024180
 Thermal correction to Enthalpy=                  0.025124
 Thermal correction to Gibbs Free Energy=        -0.008512
 Sum of electronic and zero-point Energies=          -1419.401600
 Sum of electronic and thermal Energies=             -1419.397104
 Sum of electronic and thermal Enthalpies=           -1419.396160
 Sum of electronic and thermal Free Energies=        -1419.429796

                     E (Thermal)             CV                S
                      KCal/Mol        Cal/Mol-Kelvin    Cal/Mol-Kelvin
 Total                   15.173             13.831             70.793
 Electronic               0.000              0.000              0.000
 Translational            0.889              2.981             40.209
 Rotational               0.889              2.981             25.127
 Vibrational             13.396              7.870              5.457
 Vibration     1          0.666              1.752              1.687
 Vibration     2          0.666              1.752              1.687
 Vibration     3          0.736              1.551              1.114

 Optimization completed.
    -- Stationary point found.
 Normal termination of Gaussian 16 at Fri Sep 29 13:16:21 2023.
 Gaussian 16:  ES64L-G16RevB.01 20-Dec-2017

 ---------------------------------
 # rohf/gen geom=check guess=check
 ---------------------------------

 ----------------------------
 chloroform, ROHF/cc-pVTZ-F12
 ----------------------------
 Structure from the checkpoint file:  "chcl3.chk"
 Charge =  0 Multiplicity = 1

                         Standard orientation:
 ---------------------------------------------------------------------
 Center     Atomic      Atomic             Coordinates (Angstroms)
 Number     Number       Type             X           Y           Z
 ---------------------------------------------------------------------
      1          6           0        0.000000    0.000000    0.455183
      2          1           0        0.000000    0.000000    1.535548
      3         17           0        0.000000    1.695776   -0.083660
      4         17           0        1.468585   -0.847888   -0.083660
      5         17           0       -1.468585   -0.847888   -0.083660
 ---------------------------------------------------------------------

 SCF Done:  E(ROHF) =  -1417.01631061     A.U. after   11 cycles

 The electronic state is 1-A1.
 Alpha  occ. eigenvalues -- -104.86597-104.86597-104.86597 -11.43553 -10.59104
 Alpha  occ. eigenvalues --  -10.59104 -10.59103  -8.05791  -8.05791  -8.05791
 Alpha  occ. eigenvalues --   -8.05617  -8.05617  -8.05617  -8.05613  -8.05613
 Alpha  occ. eigenvalues --   -8.05613  -1.23643  -1.11327  -1.11327  -0.87676
 Alpha  occ. eigenvalues --   -0.67929  -0.62390  -0.62390  -0.50373  -0.50373
 Alpha  occ. eigenvalues --   -0.46921  -0.46921  -0.46598  -0.45290
 Alpha virt. eigenvalues --    0.04964   0.05944   0.06530   0.06530   0.09644
 Alpha virt. eigenvalues --    0.10681   0.10681   0.11281   0.11281   0.12380
 Alpha virt. eigenvalues --    0.14605   0.14626   0.14626   0.18314   0.18602

 Mulliken charges and spin densities:
               1          2
     1  C   -0.271611  -0.000000
     2  H    0.197897  -0.000000
     3  Cl   0.024571  -0.000000
     4  Cl   0.024571  -0.000000
     5  Cl   0.024571  -0.000000
 Sum of Mulliken charges =  -0.00000  -0.00000

 Dipole moment (field-independent basis, Debye):
    X=              0.0000    Y=             -0.0000    Z=              1.2102  Tot=              1.2102
 Quadrupole moment (field-independent basis, Debye-Ang):
   XX=            -44.7478   YY=            -44.7478   ZZ=            -42.2302
   XY=              0.0000   XZ=              0.0000   YZ=              0.0000

 Normal termination of Gaussian 16 at Fri Sep 29 13:16:40 2023.
