 Gaussian 16, Revision B.01,

 ---------------------------------------
 # b3lyp/gen opt freq CPHF(Grid=OneStep)
 ---------------------------------------

 ------------------------------------
 chlorodifluoromethane, B3LYP/pcseg-2
 ------------------------------------
 Symbolic Z-matrix:
 Charge =  0 Multiplicity = 1

 SCF Done:  E(RB3LYP) =  -698.730532728     A.U. after   12 cycles
 Optimization completed.
    -- Stationary point found.
 Normal termination of Gaussian 16 at Sat Sep 30 11:21:38 2023.

 ------------------------------------------------------------------
 #N Geom=AllCheck Guess=TCheck SCRF=Check GenChk RB3LYP/ChkBas Freq
 ------------------------------------------------------------------

 Structure from the checkpoint file:  "chclf2.chk"
 ------------------------------------
 chlorodifluoromethane, B3LYP/pcseg-2
 ------------------------------------
 Charge =  0 Multiplicity = 1

 SCF Done:  E(RB3LYP) =  -698.730532728     A.U. after    1 cycles

  Exact polarizability:  28.688   6.068  26.629  -0.000  -0.000  22.633
 Approx polarizability:  40.534   9.419  37.427   0.000   0.000  31.816

                      1                      2                      3
                     A"                     A'                     A'
 Frequencies --    360.2289               402.2760               592.2980
 Red. masses --     15.9245                20.0649                14.3685
 Frc consts  --      1.2175                 1.9131                 2.9699
 IR Inten    --      0.5212                 0.2342                 7.0420

                      4                      5                      6
                     A'                     A'                     A"
 Frequencies --    782.2540              1100.4207              1111.9888
 Red. masses --      5.4589                10.4925                 7.9377
 Frc consts  --      1.9681                 7.4859                 5.7829
 IR Inten    --    167.2521               238.3874               255.9776

                      7                      8                      9
                     A'                     A"                     A'
 Frequencies --   1320.0301              1368.3083              3135.5670
 Red. masses --      1.1480                 1.1433                 1.0888
 Frc consts  --      1.1786                 1.2612                 6.3074
 IR Inten    --     66.6208                13.6397                13.5742

 - Thermochemistry -
 -------------------
 Temperature   298.150 Kelvin.  Pressure   1.00000 Atm.
 Atom     1 has atomic number  6 and mass  12.00000

 Molecular mass:    85.97348 amu.
 Principal axes and moments of inertia in atomic units:
                           1         2         3
     Eigenvalues --   177.39116 379.10561 523.22245
           X            0.65192  -0.00000   0.75829
           Y            0.75829  -0.00000  -0.65192
           Z            0.00000   1.00000   0.00000
 This molecule is an asymmetric top.
 Rotational symmetry number  1.
 Rotational temperatures (Kelvin)      0.48827     0.22847     0.16554
 Rotational constants (GHZ):          10.17379     4.76052     3.44928
 Zero-point vibrational energy      60850.3 (Joules/Mol)
                                   14.54357 (Kcal/Mol)
 Warning -- explicit consideration of   3 degrees of freedom as
           vibrations may cause significant error
 Vibrational temperatures:    518.29   578.79   852.18  1125.49  1583.26
          (Kelvin)           1599.90  1899.23  1968.69  4511.38

 Zero-point correction=                           0.023177 (Hartree/Particle)
 Thermal correction to Energy=                    0.026982
 Thermal correction to Enthalpy=                  0.027926
 Thermal correction to Gibbs Free Energy=        -0.004033
 Sum of electronic and zero-point Energies=           -698.707356
 Sum of electronic and thermal Energies=              -698.703551
 Sum of electronic and thermal Enthalpies=            -698.702607
 Sum of electronic and thermal Free Energies=         -698.734566

                     E (Thermal)             CV                S
                      KCal/Mol        Cal/Mol-Kelvin    Cal/Mol-Kelvin
 Total                   16.931             11.516             67.263
 Electronic               0.000              0.000              0.000
 Translational            0.889              2.981             39.268
 Rotational               0.889              2.981             25.068
 Vibrational             15.154              5.554              2.928
 Vibration     1          0.735              1.554              1.121
 Vibration     2          0.768              1.465              0.954
 Vibration     3          0.950              1.048              0.463

 Optimization completed.
    -- Stationary point found.
 Normal termination of Gaussian 16 at Sat Sep 30 11:22:44 2023.
 Gaussian 16:  ES64L-G16RevB.01 20-Dec-2017

 ---------------------------------
 # rohf/gen geom=check guess=check
 ---------------------------------

 ---------------------------------------
 chlorodifluoromethane, ROHF/cc-pVTZ-F12
 ---------------------------------------
 Structure from the checkpoint file:  "chclf2.chk"
 Charge =  0 Multiplicity = 1

                         Standard orientation:
 ---------------------------------------------------------------------
 Center     Atomic      Atomic             Coordinates (Angstroms)
 Number     Number       Type             X           Y           Z
 ---------------------------------------------------------------------
      1          6           0       -0.568415   -0.093166   -0.000000
      2          1           0       -1.449957    0.541371    0.000000
      3         17           0        0.887759    0.933699    0.000000
      4          9           0       -0.568415   -0.880847    1.088450
      5          9           0       -0.568415   -0.880847   -1.088450
 ---------------------------------------------------------------------

 SCF Done:  E(ROHF) =  -696.954771158     A.U. after   11 cycles

 The electronic state is 1-A'.
 Alpha  occ. eigenvalues -- -104.86373 -26.34397 -26.34395 -11.48876 -10.58929
 Alpha  occ. eigenvalues --   -8.05616  -8.05453  -8.05450  -1.70253  -1.63737
 Alpha  occ. eigenvalues --   -1.15950  -0.95677  -0.81982  -0.79803  -0.77034
 Alpha  occ. eigenvalues --   -0.69922  -0.66536  -0.65243  -0.55320  -0.48889
 Alpha  occ. eigenvalues --   -0.48451
 Alpha virt. eigenvalues --    0.04925   0.06014   0.07421   0.07571   0.10195
 Alpha virt. eigenvalues --    0.11605   0.11708   0.17549   0.17671   0.19850
 Alpha virt. eigenvalues --    0.21566   0.22918   0.24070   0.24636   0.24963

 Mulliken charges and spin densities:
               1          2
     1  C    0.433611   0.000000
     2  H    0.191819   0.000000
     3  Cl   0.008287   0.000000
     4  F   -0.316858   0.000000
     5  F   -0.316858   0.000000
 Sum of Mulliken charges =  -0.00000   0.00000

 Dipole moment (field-independent basis, Debye):
    X=             -1.2000    Y=              1.1438    Z=             -0.0000  Tot=              1.6577
 Quadrupole moment (field-independent basis, Debye-Ang):
   XX=            -26.0307   YY=            -29.4648   ZZ=            -30.5788
   XY=             -1.1838   XZ=              0.0000   YZ=              0.0000

 Normal termination of Gaussian 16 at Sat Sep 30 11:23:12 2023.
