 Gaussian 16, Revision B.01,

 ---------------------------------------
 # b3lyp/gen opt freq CPHF(Grid=OneStep)
 ---------------------------------------

 -----------------------------
 dichloromethyl, B3LYP/pcseg-2
 -----------------------------
 Symbolic Z-matrix:
 Charge =  0 Multiplicity = 2

 SCF Done:  E(UB3LYP) =  -959.135388751     A.U. after   14 cycles
 Optimization completed.
    -- Stationary point found.
 Normal termination of Gaussian 16 at Fri Sep 29 13:06:09 2023.

 ------------------------------------------------------------------
 #N Geom=AllCheck Guess=TCheck SCRF=Check GenChk UB3LYP/ChkBas Freq
 ------------------------------------------------------------------

 Structure from the checkpoint file:  "chcl2.chk"
 -----------------------------
 dichloromethyl, B3LYP/pcseg-2
 -----------------------------
 Charge =  0 Multiplicity = 2

 SCF Done:  E(UB3LYP) =  -959.135388751     A.U. after    1 cycles

  Exact polarizability:  22.177  -0.549  29.193  -0.000  -0.000  49.593
 Approx polarizability:  32.536  -0.566  43.585   0.000   0.000  73.005

                      1                      2                      3
                     A'                     A'                     A'
 Frequencies --    301.2723               434.4536               748.6513
 Red. masses --     17.6155                 1.5452                 5.5483
 Frc consts  --      0.9420                 0.1718                 1.8322
 IR Inten    --      1.0288                28.3158                12.7397

                      4                      5                      6
                     A"                     A"                     A'
 Frequencies --    873.2322              1235.3335              3222.5300
 Red. masses --      7.7706                 1.1027                 1.0885
 Frc consts  --      3.4911                 0.9914                 6.6598
 IR Inten    --    184.1173                42.7030                 0.6811

 - Thermochemistry -
 -------------------
 Temperature   298.150 Kelvin.  Pressure   1.00000 Atm.
 Atom     1 has atomic number  6 and mass  12.00000

 Molecular mass:    82.94553 amu.
 Principal axes and moments of inertia in atomic units:
                           1         2         3
     Eigenvalues --    38.23987 544.20833 581.41373
           X           -0.00000  -0.07391   0.99727
           Y            0.00000   0.99727   0.07391
           Z            1.00000  -0.00000  -0.00000
 This molecule is an asymmetric top.
 Rotational symmetry number  1.
 Rotational temperatures (Kelvin)      2.26502     0.15916     0.14897
 Rotational constants (GHZ):          47.19528     3.31627     3.10406
 Zero-point vibrational energy      40765.6 (Joules/Mol)
                                    9.74321 (Kcal/Mol)
 Warning -- explicit consideration of   2 degrees of freedom as
           vibrations may cause significant error
 Vibrational temperatures:    433.46   625.08  1077.14  1256.39  1777.37
          (Kelvin)           4636.50

 Zero-point correction=                           0.015527 (Hartree/Particle)
 Thermal correction to Energy=                    0.019224
 Thermal correction to Enthalpy=                  0.020168
 Thermal correction to Gibbs Free Energy=        -0.011781
 Sum of electronic and zero-point Energies=           -959.119862
 Sum of electronic and thermal Energies=              -959.116165
 Sum of electronic and thermal Enthalpies=            -959.115220
 Sum of electronic and thermal Free Energies=         -959.147170

                     E (Thermal)             CV                S
                      KCal/Mol        Cal/Mol-Kelvin    Cal/Mol-Kelvin
 Total                   12.063             10.488             67.244
 Electronic               0.000              0.000              1.377
 Translational            0.889              2.981             39.161
 Rotational               0.889              2.981             24.007
 Vibrational             10.286              4.526              2.698
 Vibration     1          0.693              1.671              1.410
 Vibration     2          0.795              1.395              0.844

 Optimization completed.
    -- Stationary point found.
 Normal termination of Gaussian 16 at Fri Sep 29 13:06:51 2023.
 Gaussian 16:  ES64L-G16RevB.01 20-Dec-2017

 ---------------------------------
 # rohf/gen geom=check guess=check
 ---------------------------------

 --------------------------------
 dichloromethyl, ROHF/cc-pVTZ-F12
 --------------------------------
 Structure from the checkpoint file:  "chcl2.chk"
 Charge =  0 Multiplicity = 2

                         Standard orientation:
 ---------------------------------------------------------------------
 Center     Atomic      Atomic             Coordinates (Angstroms)
 Number     Number       Type             X           Y           Z
 ---------------------------------------------------------------------
      1          6           0        0.010980    0.689687   -0.000000
      2          1           0       -0.439181    1.668628   -0.000000
      3         17           0        0.010980   -0.170787    1.475440
      4         17           0        0.010980   -0.170787   -1.475440
 ---------------------------------------------------------------------

 SCF Done:  E(ROHF) =  -957.456156540     A.U. after   15 cycles

 The electronic state is 2-A'.
 Alpha  occ. eigenvalues -- -104.86376-104.86376 -11.35025 -10.58866 -10.58864
 Alpha  occ. eigenvalues --   -8.05571  -8.05571  -8.05406  -8.05406  -8.05353
 Alpha  occ. eigenvalues --   -8.05352  -1.19841  -1.11530  -0.84137  -0.64905
 Alpha  occ. eigenvalues --   -0.60487  -0.53395  -0.47763  -0.47646  -0.46426
 Alpha  occ. eigenvalues --   -0.09268
 Alpha virt. eigenvalues --    0.05700   0.06040   0.06395   0.08237   0.10884
 Alpha virt. eigenvalues --    0.10926   0.11910   0.12246   0.12286   0.14530
 Alpha virt. eigenvalues --    0.17795   0.22347   0.22896   0.23065   0.25022

 Mulliken charges and spin densities:
               1          2
     1  C   -0.209333   0.864536
     2  H    0.193717   0.018863
     3  Cl   0.007808   0.058300
     4  Cl   0.007808   0.058300
 Sum of Mulliken charges =  -0.00000   1.00000

 Dipole moment (field-independent basis, Debye):
    X=             -0.3749    Y=              1.1233    Z=             -0.0000  Tot=              1.1842
 Quadrupole moment (field-independent basis, Debye-Ang):
   XX=            -31.8682   YY=            -29.3664   ZZ=            -31.9517
   XY=             -0.7915   XZ=              0.0000   YZ=             -0.0000

 Normal termination of Gaussian 16 at Fri Sep 29 13:07:03 2023.
