 Gaussian 16, Revision B.01,
 Gaussian 16:  ES64L-G16RevB.01 20-Dec-2017

 --------------------
 # b3lyp/gen opt freq
 --------------------

 ------------------------------
 chloromethylene, B3LYP/pcseg-2
 ------------------------------
 Symbolic Z-matrix:
 Charge =  0 Multiplicity = 1

 SCF Done:  E(RB3LYP) =  -498.822587286     A.U. after   12 cycles
 SCF Done:  E(RB3LYP) =  -498.822593621     A.U. after    8 cycles
 SCF Done:  E(RB3LYP) =  -498.822595067     A.U. after    7 cycles
 Optimization completed.
    -- Stationary point found.
 Normal termination of Gaussian 16 at Mon Jun 20 10:22:40 2022.

 ------------------------------------------------------------------
 #N Geom=AllCheck Guess=TCheck SCRF=Check GenChk RB3LYP/ChkBas Freq
 ------------------------------------------------------------------

 Structure from the checkpoint file:  "/wrk/irikura/Gau-7718.chk"
 ------------------------------
 chloromethylene, B3LYP/pcseg-2
 ------------------------------
 Charge =  0 Multiplicity = 1

                         Standard orientation:
 ---------------------------------------------------------------------
 Center     Atomic      Atomic             Coordinates (Angstroms)
 Number     Number       Type             X           Y           Z
 ---------------------------------------------------------------------
      1          6           0        0.045144    1.195949    0.000000
      2         17           0        0.045144   -0.506032    0.000000
      3          1           0       -1.038320    1.426847    0.000000
 ---------------------------------------------------------------------

 SCF Done:  E(RB3LYP) =  -498.822595067     A.U. after    1 cycles

 The electronic state is 1-A'.
 Alpha  occ. eigenvalues -- -101.55954 -10.27998  -9.50426  -7.26376  -7.26072
 Alpha  occ. eigenvalues --   -7.25542  -0.90763  -0.64121  -0.45847  -0.39454
 Alpha  occ. eigenvalues --   -0.37784  -0.25333
 Alpha virt. eigenvalues --   -0.13110   0.01376   0.04678   0.13695   0.17951
 Alpha virt. eigenvalues --    0.18836   0.21244   0.30526   0.31295   0.32380
 Alpha virt. eigenvalues --    0.32741   0.47509   0.49772   0.50994   0.54273

 Mulliken charges:
               1
     1  C   -0.059596
     2  Cl   0.018999
     3  H    0.040597
 Sum of Mulliken charges =   0.00000

 Dipole moment (field-independent basis, Debye):
    X=             -1.5304    Y=             -0.7093    Z=              0.0000  Tot=              1.6868
 Quadrupole moment (field-independent basis, Debye-Ang):
   XX=            -19.7309   YY=            -20.4190   ZZ=            -18.1831
   XY=             -2.7746   XZ=              0.0000   YZ=              0.0000

  Exact polarizability:  19.625  -1.260  34.714   0.000   0.000  16.900
 Approx polarizability:  25.747  -2.474  58.513  -0.000  -0.000  26.210

                      1                      2                      3
                     A'                     A'                     A'
 Frequencies --    797.3510              1227.3290              2914.1701
 Red. masses --     12.6632                 1.0965                 1.0862
 Frc consts  --      4.7434                 0.9732                 5.4348
 IR Inten    --     97.9523                 9.5214                69.8016

 - Thermochemistry -
 -------------------
 Temperature   298.150 Kelvin.  Pressure   1.00000 Atm.
 Atom     1 has atomic number  6 and mass  12.00000

 Molecular mass:    47.97668 amu.
 Principal axes and moments of inertia in atomic units:
                           1         2         3
     Eigenvalues --     3.79730 100.66445 104.46175
           X           -0.05914   0.99825   0.00000
           Y            0.99825   0.05914   0.00000
           Z           -0.00000   0.00000   1.00000
 This molecule is an asymmetric top.
 Rotational symmetry number  1.
 Rotational temperatures (Kelvin)     22.80932     0.86042     0.82914
 Rotational constants (GHZ):         475.26906    17.92829    17.27657
 Zero-point vibrational energy      29540.9 (Joules/Mol)
                                    7.06044 (Kcal/Mol)
 Vibrational temperatures:   1147.21  1765.85  4192.84
          (Kelvin)

 Zero-point correction=                           0.011252 (Hartree/Particle)
 Thermal correction to Energy=                    0.014178
 Thermal correction to Enthalpy=                  0.015122
 Thermal correction to Gibbs Free Energy=        -0.011535
 Sum of electronic and zero-point Energies=           -498.811344
 Sum of electronic and thermal Energies=              -498.808417
 Sum of electronic and thermal Enthalpies=            -498.807473
 Sum of electronic and thermal Free Energies=         -498.834130

                     E (Thermal)             CV                S
                      KCal/Mol        Cal/Mol-Kelvin    Cal/Mol-Kelvin
 Total                    8.897              6.805             56.105
 Electronic               0.000              0.000              0.000
 Translational            0.889              2.981             37.529
 Rotational               0.889              2.981             18.330
 Vibrational              7.120              0.843              0.246

 Optimization completed.
    -- Stationary point found.
 Normal termination of Gaussian 16 at Mon Jun 20 10:22:47 2022.
