 Gaussian 16, Revision B.01,
 Gaussian 16:  ES64L-G16RevB.01 20-Dec-2017

 --------------------
 # b3lyp/gen opt freq
 --------------------

 -----------------------------
 dichloromethyl, B3LYP/pcseg-2
 -----------------------------
 Symbolic Z-matrix:
 Charge =  0 Multiplicity = 2

 SCF Done:  E(UB3LYP) =  -959.135266970     A.U. after   14 cycles
 SCF Done:  E(UB3LYP) =  -959.135369884     A.U. after   10 cycles
 SCF Done:  E(UB3LYP) =  -959.135388751     A.U. after   11 cycles
 Optimization completed.
    -- Stationary point found.
 Normal termination of Gaussian 16 at Thu Jun 16 16:11:31 2022.

 ------------------------------------------------------------------
 #N Geom=AllCheck Guess=TCheck SCRF=Check GenChk UB3LYP/ChkBas Freq
 ------------------------------------------------------------------

 Structure from the checkpoint file:  "/wrk/irikura/Gau-32713.chk"
 -----------------------------
 dichloromethyl, B3LYP/pcseg-2
 -----------------------------
 Charge =  0 Multiplicity = 2

                         Standard orientation:
 ---------------------------------------------------------------------
 Center     Atomic      Atomic             Coordinates (Angstroms)
 Number     Number       Type             X           Y           Z
 ---------------------------------------------------------------------
      1          6           0        0.010980    0.689687    0.000000
      2          1           0       -0.439181    1.668628    0.000000
      3         17           0        0.010980   -0.170787    1.475440
      4         17           0        0.010980   -0.170787   -1.475440
 ---------------------------------------------------------------------

 SCF Done:  E(UB3LYP) =  -959.135388751     A.U. after    1 cycles

 The electronic state is 2-A'.
 Alpha  occ. eigenvalues -- -101.54214-101.54214 -10.29393  -9.48683  -9.48683
 Alpha  occ. eigenvalues --   -7.24789  -7.24789  -7.24118  -7.24118  -7.23915
 Alpha  occ. eigenvalues --   -7.23915  -0.92796  -0.85638  -0.65002  -0.49723
 Alpha  occ. eigenvalues --   -0.47320  -0.42511  -0.35305  -0.34501  -0.33449
 Alpha  occ. eigenvalues --   -0.22542
 Alpha virt. eigenvalues --   -0.01598   0.03756   0.05132   0.12955   0.14011
 Alpha virt. eigenvalues --    0.16542   0.22981   0.27599   0.28860   0.30561
 Alpha virt. eigenvalues --    0.32442   0.32808   0.33898   0.34399   0.45669

  Beta  occ. eigenvalues -- -101.54129-101.54129 -10.27923  -9.48600  -9.48600
  Beta  occ. eigenvalues --   -7.24769  -7.24769  -7.23866  -7.23866  -7.23817
  Beta  occ. eigenvalues --   -7.23817  -0.91629  -0.85150  -0.62558  -0.48905
  Beta  occ. eigenvalues --   -0.46575  -0.39158  -0.34276  -0.33910  -0.33251
  Beta virt. eigenvalues --   -0.09378  -0.00221   0.04183   0.06066   0.13198
  Beta virt. eigenvalues --    0.14190   0.18586   0.23571   0.27820   0.29298
  Beta virt. eigenvalues --    0.31223   0.32643   0.33349   0.33983   0.35215

 Mulliken charges and spin densities:
               1          2
     1  C   -0.019533   0.835291
     2  H    0.114383  -0.021687
     3  Cl  -0.047425   0.093198
     4  Cl  -0.047425   0.093198
 Sum of Mulliken charges =  -0.00000   1.00000

 Dipole moment (field-independent basis, Debye):
    X=             -0.4449    Y=              0.8226    Z=             -0.0000  Tot=              0.9352
 Quadrupole moment (field-independent basis, Debye-Ang):
   XX=            -31.8211   YY=            -29.5430   ZZ=            -31.3408
   XY=             -0.8297   XZ=             -0.0000   YZ=              0.0000

  Exact polarizability:  22.177  -0.549  29.193  -0.000  -0.000  49.593
 Approx polarizability:  32.536  -0.566  43.585  -0.000  -0.000  73.005

                      1                      2                      3
                     A'                     A'                     A'
 Frequencies --    301.2613               434.4675               748.6549
 Red. masses --     17.6155                 1.5452                 5.5481
 Frc consts  --      0.9420                 0.1719                 1.8321
 IR Inten    --      1.0289                28.3158                12.7413

                      4                      5                      6
                     A"                     A"                     A'
 Frequencies --    873.2295              1235.3339              3222.5250
 Red. masses --      7.7708                 1.1027                 1.0885
 Frc consts  --      3.4912                 0.9914                 6.6597
 IR Inten    --    184.1157                42.6964                 0.6811

 - Thermochemistry -
 -------------------
 Temperature   298.150 Kelvin.  Pressure   1.00000 Atm.
 Atom     1 has atomic number  6 and mass  12.00000

 Molecular mass:    82.94553 amu.
 Principal axes and moments of inertia in atomic units:
                           1         2         3
     Eigenvalues --    38.23984 544.20816 581.41353
           X            0.00000  -0.07391   0.99727
           Y            0.00000   0.99727   0.07391
           Z            1.00000   0.00000   0.00000
 This molecule is an asymmetric top.
 Rotational symmetry number  1.
 Rotational temperatures (Kelvin)      2.26502     0.15916     0.14897
 Rotational constants (GHZ):          47.19532     3.31627     3.10406
 Zero-point vibrational energy      40765.6 (Joules/Mol)
                                    9.74321 (Kcal/Mol)
 Warning -- explicit consideration of   2 degrees of freedom as
           vibrations may cause significant error
 Vibrational temperatures:    433.45   625.10  1077.15  1256.38  1777.37
          (Kelvin)           4636.49

 Zero-point correction=                           0.015527 (Hartree/Particle)
 Thermal correction to Energy=                    0.019224
 Thermal correction to Enthalpy=                  0.020168
 Thermal correction to Gibbs Free Energy=        -0.011781
 Sum of electronic and zero-point Energies=           -959.119862
 Sum of electronic and thermal Energies=              -959.116165
 Sum of electronic and thermal Enthalpies=            -959.115220
 Sum of electronic and thermal Free Energies=         -959.147170

                     E (Thermal)             CV                S
                      KCal/Mol        Cal/Mol-Kelvin    Cal/Mol-Kelvin
 Total                   12.063             10.488             67.244
 Electronic               0.000              0.000              1.377
 Translational            0.889              2.981             39.161
 Rotational               0.889              2.981             24.007
 Vibrational             10.286              4.526              2.698
 Vibration     1          0.693              1.671              1.410
 Vibration     2          0.795              1.395              0.844

 Optimization completed.
    -- Stationary point found.
 Normal termination of Gaussian 16 at Thu Jun 16 16:11:46 2022.
