 Gaussian 16, Revision B.01,

 ---------------------------------------
 # b3lyp/gen opt freq CPHF(Grid=OneStep)
 ---------------------------------------

 ----------------------------------------
 1,1,2,2-tetrachloroethane, B3LYP/pcseg-2
 ----------------------------------------
 Symbolic Z-matrix:
 Charge =  0 Multiplicity = 1

 SCF Done:  E(RB3LYP) =  -1918.38235124     A.U. after   12 cycles
 Optimization completed.
    -- Stationary point found.
 Normal termination of Gaussian 16 at Fri Sep 29 22:58:23 2023.

 ------------------------------------------------------------------
 #N Geom=AllCheck Guess=TCheck SCRF=Check GenChk RB3LYP/ChkBas Freq
 ------------------------------------------------------------------

 Structure from the checkpoint file:  "chcl2chcl2.chk"
 ----------------------------------------
 1,1,2,2-tetrachloroethane, B3LYP/pcseg-2
 ----------------------------------------
 Charge =  0 Multiplicity = 1

 SCF Done:  E(RB3LYP) =  -1918.38235124     A.U. after    1 cycles

  Exact polarizability:  75.003  -8.208  71.589   0.000   0.000  63.341
 Approx polarizability: 119.455 -15.014 100.315   0.000  -0.000 102.930

                      1                      2                      3
                      A                      B                      A
 Frequencies --     72.1030               165.3615               170.0477
 Red. masses --     24.5189                21.5548                29.4841
 Frc consts  --      0.0751                 0.3473                 0.5023
 IR Inten    --      0.3966                 1.0252                 0.1345

                      4                      5                      6
                      A                      B                      A
 Frequencies --    233.2002               285.0688               347.2392
 Red. masses --     24.5555                17.6391                23.2032
 Frc consts  --      0.7868                 0.8446                 1.6484
 IR Inten    --      0.1731                 1.6103                 0.4607

                      7                      8                      9
                      B                      A                      B
 Frequencies --    544.4678               638.2674               714.0675
 Red. masses --      8.4197                 8.1745                 9.9760
 Frc consts  --      1.4706                 1.9621                 2.9970
 IR Inten    --     24.2564                31.4224               129.2974

                     10                     11                     12
                      A                      B                      A
 Frequencies --    775.6356               785.2435              1015.8107
 Red. masses --      6.2761                 5.5649                 4.1277
 Frc consts  --      2.2246                 2.0217                 2.5095
 IR Inten    --     48.3651                76.8726                11.8956

                     13                     14                     15
                      B                      A                      A
 Frequencies --   1219.8983              1235.1237              1262.6478
 Red. masses --      1.0542                 1.1232                 1.2164
 Frc consts  --      0.9243                 1.0095                 1.1426
 IR Inten    --     17.7556                 8.9652                 3.8329

                     16                     17                     18
                      B                      B                      A
 Frequencies --   1308.2741              3138.1263              3144.3553
 Red. masses --      1.1902                 1.0866                 1.0874
 Frc consts  --      1.2003                 6.3046                 6.3343
 IR Inten    --     20.2352                 6.4792                 0.0193

 - Thermochemistry -
 -------------------
 Temperature   298.150 Kelvin.  Pressure   1.00000 Atm.
 Atom     1 has atomic number  6 and mass  12.00000

 Molecular mass:   165.89106 amu.
 Principal axes and moments of inertia in atomic units:
                           1         2         3
     Eigenvalues --  1038.116271639.457411926.63073
           X           -0.29060   0.95685   0.00000
           Y            0.95685   0.29060   0.00000
           Z            0.00000   0.00000   1.00000
 This molecule is an asymmetric top.
 Rotational symmetry number  2.
 Warning -- assumption of classical behavior for rotation
           may cause significant error
 Rotational temperatures (Kelvin)      0.08343     0.05283     0.04496
 Rotational constants (GHZ):           1.73848     1.10082     0.93673
 Zero-point vibrational energy     102011.2 (Joules/Mol)
                                   24.38126 (Kcal/Mol)
 Warning -- explicit consideration of   7 degrees of freedom as
           vibrations may cause significant error
 Vibrational temperatures:    103.74   237.92   244.66   335.52   410.15
          (Kelvin)            499.60   783.37   918.32  1027.38  1115.97
                             1129.79  1461.53  1755.16  1777.07  1816.67
                             1882.31  4515.06  4524.03

 Zero-point correction=                           0.038854 (Hartree/Particle)
 Thermal correction to Energy=                    0.045714
 Thermal correction to Enthalpy=                  0.046658
 Thermal correction to Gibbs Free Energy=         0.006330
 Sum of electronic and zero-point Energies=          -1918.343497
 Sum of electronic and thermal Energies=             -1918.336638
 Sum of electronic and thermal Enthalpies=           -1918.335693
 Sum of electronic and thermal Free Energies=        -1918.376022

                     E (Thermal)             CV                S
                      KCal/Mol        Cal/Mol-Kelvin    Cal/Mol-Kelvin
 Total                   28.686             22.086             84.878
 Electronic               0.000              0.000              0.000
 Translational            0.889              2.981             41.227
 Rotational               0.889              2.981             28.196
 Vibrational             26.908             16.124             15.455
 Vibration     1          0.598              1.967              4.095
 Vibration     2          0.624              1.885              2.488
 Vibration     3          0.625              1.879              2.435
 Vibration     4          0.654              1.790              1.854
 Vibration     5          0.683              1.701              1.503
 Vibration     6          0.725              1.581              1.179
 Vibration     7          0.900              1.152              0.556

 Optimization completed.
    -- Stationary point found.
 Normal termination of Gaussian 16 at Fri Sep 29 23:02:16 2023.
 Gaussian 16:  ES64L-G16RevB.01 20-Dec-2017

 ---------------------------------
 # rohf/gen geom=check guess=check
 ---------------------------------

 -------------------------------------------
 1,1,2,2-tetrachloroethane, ROHF/cc-pVTZ-F12
 -------------------------------------------
 Structure from the checkpoint file:  "chcl2chcl2.chk"
 Charge =  0 Multiplicity = 1

                         Standard orientation:
 ---------------------------------------------------------------------
 Center     Atomic      Atomic             Coordinates (Angstroms)
 Number     Number       Type             X           Y           Z
 ---------------------------------------------------------------------
      1          6           0        0.231072    0.729506   -0.486800
      2          6           0       -0.231072   -0.729506   -0.486800
      3          1           0        0.864183    0.888717   -1.352116
      4         17           0       -1.186737    1.807887   -0.692447
      5         17           0        1.186737    1.176348    0.943795
      6          1           0       -0.864183   -0.888717   -1.352116
      7         17           0        1.186737   -1.807887   -0.692447
      8         17           0       -1.186737   -1.176348    0.943795
 ---------------------------------------------------------------------

 SCF Done:  E(ROHF) =  -1915.00611274     A.U. after   11 cycles

 The electronic state is 1-A.
 Alpha  occ. eigenvalues -- -104.86213-104.86213-104.85922-104.85922 -11.39696
 Alpha  occ. eigenvalues --  -11.39635 -10.58728 -10.58728 -10.58441 -10.58440
 Alpha  occ. eigenvalues --   -8.05415  -8.05415  -8.05251  -8.05251  -8.05245
 Alpha  occ. eigenvalues --   -8.05245  -8.05132  -8.05132  -8.04962  -8.04962
 Alpha  occ. eigenvalues --   -8.04956  -8.04956  -1.24459  -1.17237  -1.11246
 Alpha  occ. eigenvalues --   -1.10526  -0.97108  -0.83375  -0.70835  -0.65747
 Alpha  occ. eigenvalues --   -0.63949  -0.58715  -0.57369  -0.50344  -0.49028
 Alpha  occ. eigenvalues --   -0.48246  -0.47599  -0.46351  -0.46146  -0.45751
 Alpha  occ. eigenvalues --   -0.45376
 Alpha virt. eigenvalues --    0.04349   0.05546   0.05750   0.06086   0.07581
 Alpha virt. eigenvalues --    0.07930   0.10402   0.10452   0.10753   0.11520
 Alpha virt. eigenvalues --    0.11935   0.12989   0.13423   0.13831   0.14034

 Mulliken charges and spin densities:
               1          2
     1  C   -0.172192   0.000000
     2  C   -0.172192   0.000000
     3  H    0.191001   0.000000
     4  Cl  -0.017818   0.000000
     5  Cl  -0.000991   0.000000
     6  H    0.191001   0.000000
     7  Cl  -0.017818   0.000000
     8  Cl  -0.000991   0.000000
 Sum of Mulliken charges =   0.00000   0.00000

 Dipole moment (field-independent basis, Debye):
    X=              0.0000    Y=             -0.0000    Z=             -1.8261  Tot=              1.8261
 Quadrupole moment (field-independent basis, Debye-Ang):
   XX=            -63.3764   YY=            -65.7724   ZZ=            -60.7488
   XY=              1.2261   XZ=             -0.0000   YZ=             -0.0000

 Normal termination of Gaussian 16 at Fri Sep 29 23:04:38 2023.
