 Gaussian 16, Revision B.01,
 Gaussian 16:  ES64L-G16RevB.01 20-Dec-2017

 --------------------
 # b3lyp/gen opt freq
 --------------------

 -------------------------
 chloroform, B3LYP/pcseg-2
 -------------------------
 Symbolic Z-matrix:
 Charge =  0 Multiplicity = 1

 SCF Done:  E(RB3LYP) =  -1419.42126906     A.U. after   11 cycles
 SCF Done:  E(RB3LYP) =  -1419.42128398     A.U. after    7 cycles
 Optimization completed.
    -- Stationary point found.
 Normal termination of Gaussian 16 at Wed Jun 15 15:19:01 2022.

 ------------------------------------------------------------------
 #N Geom=AllCheck Guess=TCheck SCRF=Check GenChk RB3LYP/ChkBas Freq
 ------------------------------------------------------------------

 Structure from the checkpoint file:  "/wrk/irikura/Gau-9814.chk"
 -------------------------
 chloroform, B3LYP/pcseg-2
 -------------------------
 Charge =  0 Multiplicity = 1

                         Standard orientation:
 ---------------------------------------------------------------------
 Center     Atomic      Atomic             Coordinates (Angstroms)
 Number     Number       Type             X           Y           Z
 ---------------------------------------------------------------------
      1          6           0        0.000000    0.000000    0.455183
      2          1           0        0.000000    0.000000    1.535548
      3         17           0        0.000000    1.695776   -0.083660
      4         17           0        1.468585   -0.847888   -0.083660
      5         17           0       -1.468585   -0.847888   -0.083660
 ---------------------------------------------------------------------

 SCF Done:  E(RB3LYP) =  -1419.42128398     A.U. after    1 cycles

 The electronic state is 1-A1.
 Alpha  occ. eigenvalues -- -101.53936-101.53936-101.53936 -10.36349  -9.48468
 Alpha  occ. eigenvalues --   -9.48468  -9.48467  -7.24677  -7.24677  -7.24677
 Alpha  occ. eigenvalues --   -7.23713  -7.23713  -7.23713  -7.23702  -7.23702
 Alpha  occ. eigenvalues --   -7.23702  -0.95061  -0.84986  -0.84986  -0.66238
 Alpha  occ. eigenvalues --   -0.51769  -0.48389  -0.48389  -0.36426  -0.36426
 Alpha  occ. eigenvalues --   -0.33716  -0.33716  -0.33391  -0.31914
 Alpha virt. eigenvalues --   -0.04913   0.00143   0.00143   0.01694   0.14317
 Alpha virt. eigenvalues --    0.14317   0.14498   0.21482   0.25584   0.25584
 Alpha virt. eigenvalues --    0.29385   0.31818   0.31818   0.31840   0.33830

 Mulliken charges:
               1
     1  C    0.086182
     2  H    0.117535
     3  Cl  -0.067906
     4  Cl  -0.067906
     5  Cl  -0.067906
 Sum of Mulliken charges =  -0.00000

 Dipole moment (field-independent basis, Debye):
    X=              0.0000    Y=             -0.0000    Z=              1.1488  Tot=              1.1488
 Quadrupole moment (field-independent basis, Debye-Ang):
   XX=            -44.6270   YY=            -44.6270   ZZ=            -42.2357
   XY=             -0.0000   XZ=             -0.0000   YZ=             -0.0000

  Exact polarizability:  52.559   0.000  52.559   0.000  -0.000  33.025
 Approx polarizability:  78.848   0.000  78.848   0.000   0.000  51.456

                      1                      2                      3
                      E                      E                     A1
 Frequencies --    256.2916               256.2937               361.9406
 Red. masses --     25.9031                25.9030                21.0815
 Frc consts  --      1.0025                 1.0025                 1.6271
 IR Inten    --      0.0002                 0.0002                 0.2298

                      4                      5                      6
                     A1                      E                      E
 Frequencies --    662.8641               730.2887               730.2962
 Red. masses --      8.0397                 9.6704                 9.6704
 Frc consts  --      2.0813                 3.0387                 3.0387
 IR Inten    --      5.5103               179.2182               179.2103

                      7                      8                      9
                      E                      E                     A1
 Frequencies --   1233.3867              1233.3881              3175.4129
 Red. masses --      1.0724                 1.0724                 1.0887
 Frc consts  --      0.9612                 0.9612                 6.4677
 IR Inten    --     28.2765                28.2777                 0.3883

 - Thermochemistry -
 -------------------
 Temperature   298.150 Kelvin.  Pressure   1.00000 Atm.
 Atom     1 has atomic number  6 and mass  12.00000

 Molecular mass:   117.91438 amu.
 Principal axes and moments of inertia in atomic units:
                           1         2         3
     Eigenvalues --   558.54292 558.542921077.30118
           X           -0.38046   0.92480   0.00000
           Y            0.92480   0.38046   0.00000
           Z           -0.00000  -0.00000   1.00000
 This molecule is an oblate symmetric top.
 Rotational symmetry number  3.
 Warning -- assumption of classical behavior for rotation
           may cause significant error
 Rotational temperatures (Kelvin)      0.15507     0.15507     0.08040
 Rotational constants (GHZ):           3.23116     3.23116     1.67524
 Zero-point vibrational energy      51679.6 (Joules/Mol)
                                   12.35173 (Kcal/Mol)
 Warning -- explicit consideration of   3 degrees of freedom as
           vibrations may cause significant error
 Vibrational temperatures:    368.75   368.75   520.75   953.71  1050.72
          (Kelvin)           1050.73  1774.57  1774.57  4568.71

 Zero-point correction=                           0.019684 (Hartree/Particle)
 Thermal correction to Energy=                    0.024180
 Thermal correction to Enthalpy=                  0.025124
 Thermal correction to Gibbs Free Energy=        -0.008512
 Sum of electronic and zero-point Energies=          -1419.401600
 Sum of electronic and thermal Energies=             -1419.397104
 Sum of electronic and thermal Enthalpies=           -1419.396160
 Sum of electronic and thermal Free Energies=        -1419.429796

                     E (Thermal)             CV                S
                      KCal/Mol        Cal/Mol-Kelvin    Cal/Mol-Kelvin
 Total                   15.173             13.831             70.793
 Electronic               0.000              0.000              0.000
 Translational            0.889              2.981             40.209
 Rotational               0.889              2.981             25.127
 Vibrational             13.396              7.870              5.457
 Vibration     1          0.666              1.752              1.687
 Vibration     2          0.666              1.752              1.687
 Vibration     3          0.736              1.551              1.114

 Optimization completed.
    -- Stationary point found.
 Normal termination of Gaussian 16 at Wed Jun 15 15:19:18 2022.
