 Gaussian 16, Revision B.01,
 Gaussian 16:  ES64L-G16RevB.01 20-Dec-2017

 --------------------
 # b3lyp/gen opt freq
 --------------------

 ---------------------------------------
 cis-1,2-dichloroethylene, B3LYP/pcseg-2
 ---------------------------------------
 Symbolic Z-matrix:
 Charge =  0 Multiplicity = 1

 SCF Done:  E(RB3LYP) =  -997.894651110     A.U. after   12 cycles
 SCF Done:  E(RB3LYP) =  -997.894693450     A.U. after    7 cycles
 SCF Done:  E(RB3LYP) =  -997.894694628     A.U. after    6 cycles
 Optimization completed.
    -- Stationary point found.
 Normal termination of Gaussian 16 at Tue Jun 21 10:19:55 2022.

 ------------------------------------------------------------------
 #N Geom=AllCheck Guess=TCheck SCRF=Check GenChk RB3LYP/ChkBas Freq
 ------------------------------------------------------------------

 Structure from the checkpoint file:  "/wrk/irikura/Gau-25853.chk"
 ---------------------------------------
 cis-1,2-dichloroethylene, B3LYP/pcseg-2
 ---------------------------------------
 Charge =  0 Multiplicity = 1

                         Standard orientation:
 ---------------------------------------------------------------------
 Center     Atomic      Atomic             Coordinates (Angstroms)
 Number     Number       Type             X           Y           Z
 ---------------------------------------------------------------------
      1          6           0        0.000000    0.662107    0.957182
      2          6           0       -0.000000   -0.662107    0.957182
      3         17           0        0.000000    1.661129   -0.448843
      4         17           0       -0.000000   -1.661129   -0.448843
      5          1           0        0.000000    1.209241    1.887237
      6          1           0       -0.000000   -1.209241    1.887237
 ---------------------------------------------------------------------

 SCF Done:  E(RB3LYP) =  -997.894694628     A.U. after    1 cycles

 The electronic state is 1-A1.
 Alpha  occ. eigenvalues -- -101.52910-101.52910 -10.24979 -10.24882  -9.47407
 Alpha  occ. eigenvalues --   -9.47407  -7.23567  -7.23567  -7.22720  -7.22720
 Alpha  occ. eigenvalues --   -7.22641  -7.22641  -0.90897  -0.86552  -0.75072
 Alpha  occ. eigenvalues --   -0.58723  -0.52313  -0.47457  -0.41668  -0.40426
 Alpha  occ. eigenvalues --   -0.35349  -0.33371  -0.32322  -0.26675
 Alpha virt. eigenvalues --   -0.02887   0.00244   0.01343   0.03217   0.09000
 Alpha virt. eigenvalues --    0.11723   0.16094   0.16358   0.18004   0.23194
 Alpha virt. eigenvalues --    0.23705   0.24591   0.27616   0.29832   0.31463

 Mulliken charges:
               1
     1  C   -0.016080
     2  C   -0.016080
     3  Cl  -0.085186
     4  Cl  -0.085186
     5  H    0.101266
     6  H    0.101266
 Sum of Mulliken charges =  -0.00000

 Dipole moment (field-independent basis, Debye):
    X=              0.0000    Y=              0.0000    Z=              1.8879  Tot=              1.8879
 Quadrupole moment (field-independent basis, Debye-Ang):
   XX=            -38.7075   YY=            -37.8225   ZZ=            -32.9534
   XY=             -0.0000   XZ=             -0.0000   YZ=             -0.0000

  Exact polarizability:  28.595  -0.000  63.521   0.000   0.000  47.093
 Approx polarizability:  43.031   0.000  96.575   0.000  -0.000  73.285

                      1                      2                      3
                     A1                     A2                     B2
 Frequencies --    166.1088               423.6307               573.8744
 Red. masses --     26.3324                 3.8123                 9.3610
 Frc consts  --      0.4281                 0.4031                 1.8164
 IR Inten    --      0.2638                 0.0000                 7.5840

                      4                      5                      6
                     A1                     B1                     B2
 Frequencies --    706.6360               713.8008               848.3735
 Red. masses --      9.0576                 1.2298                 4.4605
 Frc consts  --      2.6647                 0.3692                 1.8915
 IR Inten    --     21.7793                62.6715                88.1218

                      7                      8                      9
                     A2                     A1                     B2
 Frequencies --    915.2987              1215.8430              1319.6336
 Red. masses --      1.2552                 1.0444                 1.2256
 Frc consts  --      0.6195                 0.9097                 1.2575
 IR Inten    --      0.0000                 0.0490                28.2771

                     10                     11                     12
                     A1                     B2                     A1
 Frequencies --   1645.8698              3202.9383              3223.4000
 Red. masses --      7.6885                 1.0845                 1.0990
 Frc consts  --     12.2711                 6.5551                 6.7280
 IR Inten    --     42.3938                14.1523                 1.2337

 - Thermochemistry -
 -------------------
 Temperature   298.150 Kelvin.  Pressure   1.00000 Atm.
 Atom     1 has atomic number  6 and mass  12.00000

 Molecular mass:    95.95336 amu.
 Principal axes and moments of inertia in atomic units:
                           1         2         3
     Eigenvalues --   153.68258 737.25053 890.93311
           X            0.00000   0.00000   1.00000
           Y            1.00000   0.00000  -0.00000
           Z            0.00000   1.00000   0.00000
 This molecule is an asymmetric top.
 Rotational symmetry number  2.
 Rotational temperatures (Kelvin)      0.56359     0.11748     0.09722
 Rotational constants (GHZ):          11.74330     2.44793     2.02568
 Zero-point vibrational energy      89453.2 (Joules/Mol)
                                   21.37983 (Kcal/Mol)
 Warning -- explicit consideration of   3 degrees of freedom as
           vibrations may cause significant error
 Vibrational temperatures:    238.99   609.51   825.68  1016.69  1027.00
          (Kelvin)           1220.62  1316.91  1749.33  1898.66  2368.04
                             4608.31  4637.75

 Zero-point correction=                           0.034071 (Hartree/Particle)
 Thermal correction to Energy=                    0.038344
 Thermal correction to Enthalpy=                  0.039288
 Thermal correction to Gibbs Free Energy=         0.006433
 Sum of electronic and zero-point Energies=           -997.860624
 Sum of electronic and thermal Energies=              -997.856351
 Sum of electronic and thermal Enthalpies=            -997.855407
 Sum of electronic and thermal Free Energies=         -997.888262

                     E (Thermal)             CV                S
                      KCal/Mol        Cal/Mol-Kelvin    Cal/Mol-Kelvin
 Total                   24.061             13.404             69.150
 Electronic               0.000              0.000              0.000
 Translational            0.889              2.981             39.595
 Rotational               0.889              2.981             24.738
 Vibrational             22.284              7.442              4.817
 Vibration     1          0.624              1.884              2.479
 Vibration     2          0.786              1.419              0.880
 Vibration     3          0.930              1.088              0.497

 Optimization completed.
    -- Stationary point found.
 Normal termination of Gaussian 16 at Tue Jun 21 10:20:15 2022.
