 Gaussian 16, Revision B.01,

 ---------------------------------------
 # b3lyp/gen opt freq CPHF(Grid=OneStep)
 ---------------------------------------

 ------------------------------
 fluoromethylene, B3LYP/pcseg-2
 ------------------------------
 Symbolic Z-matrix:
 Charge =  0 Multiplicity = 1

 SCF Done:  E(RB3LYP) =  -138.467845313     A.U. after   11 cycles
 SCF Done:  E(RB3LYP) =  -138.467845363     A.U. after    7 cycles
 Optimization completed.
    -- Stationary point found.
 Normal termination of Gaussian 16 at Fri Sep 29 23:04:44 2023.

 ------------------------------------------------------------------
 #N Geom=AllCheck Guess=TCheck SCRF=Check GenChk RB3LYP/ChkBas Freq
 ------------------------------------------------------------------

 Structure from the checkpoint file:  "chf.chk"
 ------------------------------
 fluoromethylene, B3LYP/pcseg-2
 ------------------------------
 Charge =  0 Multiplicity = 1

 SCF Done:  E(RB3LYP) =  -138.467845363     A.U. after    1 cycles

  Exact polarizability:  16.446  -1.635  15.282   0.000   0.000  11.779
 Approx polarizability:  19.174  -2.883  20.812  -0.000  -0.000  16.945

                      1                      2                      3
                     A'                     A'                     A'
 Frequencies --   1199.1670              1441.4537              2769.7156
 Red. masses --     13.5098                 1.1516                 1.0839
 Frc consts  --     11.4461                 1.4098                 4.8989
 IR Inten    --    175.7453                25.2551               177.6271

 - Thermochemistry -
 -------------------
 Temperature   298.150 Kelvin.  Pressure   1.00000 Atm.
 Atom     1 has atomic number  1 and mass   1.00783

 Molecular mass:    32.00623 amu.
 Principal axes and moments of inertia in atomic units:
                           1         2         3
     Eigenvalues --     3.83898  49.23263  53.07161
           X           -0.08796   0.99612   0.00000
           Y            0.99612   0.08796   0.00000
           Z           -0.00000   0.00000   1.00000
 This molecule is an asymmetric top.
 Rotational symmetry number  1.
 Rotational temperatures (Kelvin)     22.56172     1.75928     1.63202
 Rotational constants (GHZ):         470.10985    36.65742    34.00578
 Zero-point vibrational energy      32361.0 (Joules/Mol)
                                    7.73446 (Kcal/Mol)
 Vibrational temperatures:   1725.33  2073.93  3985.00
          (Kelvin)

 Zero-point correction=                           0.012326 (Hartree/Particle)
 Thermal correction to Energy=                    0.015181
 Thermal correction to Enthalpy=                  0.016125
 Thermal correction to Gibbs Free Energy=        -0.009216
 Sum of electronic and zero-point Energies=           -138.455520
 Sum of electronic and thermal Energies=              -138.452664
 Sum of electronic and thermal Enthalpies=            -138.451720
 Sum of electronic and thermal Free Energies=         -138.477062

                     E (Thermal)             CV                S
                      KCal/Mol        Cal/Mol-Kelvin    Cal/Mol-Kelvin
 Total                    9.526              6.259             53.336
 Electronic               0.000              0.000              0.000
 Translational            0.889              2.981             36.322
 Rotational               0.889              2.981             16.957
 Vibrational              7.749              0.298              0.057

 Optimization completed.
    -- Stationary point found.
 Normal termination of Gaussian 16 at Fri Sep 29 23:04:56 2023.
 Gaussian 16:  ES64L-G16RevB.01 20-Dec-2017

 ---------------------------------
 # rohf/gen geom=check guess=check
 ---------------------------------

 ---------------------------------
 fluoromethylene, ROHF/cc-pVTZ-F12
 ---------------------------------
 Structure from the checkpoint file:  "chf.chk"
 Charge =  0 Multiplicity = 1

                         Standard orientation:
 ---------------------------------------------------------------------
 Center     Atomic      Atomic             Coordinates (Angstroms)
 Number     Number       Type             X           Y           Z
 ---------------------------------------------------------------------
      1          1           0       -1.027882    0.959820    0.000000
      2          6           0        0.068525    0.722318    0.000000
      3          9           0        0.068525   -0.588192    0.000000
 ---------------------------------------------------------------------

 SCF Done:  E(ROHF) =  -137.822159590     A.U. after   11 cycles

 The electronic state is 1-A'.
 Alpha  occ. eigenvalues --  -26.35706 -11.37034  -1.68097  -0.92917  -0.76570
 Alpha  occ. eigenvalues --   -0.71523  -0.66904  -0.41136
 Alpha virt. eigenvalues --    0.04156   0.06206   0.07372   0.08721   0.11036
 Alpha virt. eigenvalues --    0.18491   0.21166   0.21305   0.21453   0.28745
 Alpha virt. eigenvalues --    0.34718   0.38088   0.43727   0.45959   0.48005

 Mulliken charges and spin densities:
               1          2
     1  H    0.098796   0.000000
     2  C    0.125437   0.000000
     3  F   -0.224233   0.000000
 Sum of Mulliken charges =  -0.00000   0.00000

 Dipole moment (field-independent basis, Debye):
    X=             -1.5794    Y=              0.1416    Z=              0.0000  Tot=              1.5858
 Quadrupole moment (field-independent basis, Debye-Ang):
   XX=            -11.7843   YY=            -12.8326   ZZ=            -10.2561
   XY=             -1.9301   XZ=              0.0000   YZ=              0.0000

 Normal termination of Gaussian 16 at Fri Sep 29 23:04:59 2023.
