 Gaussian 16, Revision B.01,
 Gaussian 16:  ES64L-G16RevB.01 20-Dec-2017

 --------------------
 # b3lyp/gen opt freq
 --------------------

 -------------------
 CHF3, B3LYP/pcseg-2
 -------------------
 Symbolic Z-matrix:
 Charge =  0 Multiplicity = 1

 SCF Done:  E(RB3LYP) =  -338.379124201     A.U. after   10 cycles
 SCF Done:  E(RB3LYP) =  -338.390640331     A.U. after    9 cycles
 SCF Done:  E(RB3LYP) =  -338.390771916     A.U. after    7 cycles
 SCF Done:  E(RB3LYP) =  -338.390772963     A.U. after    6 cycles
 Optimization completed.
    -- Stationary point found.
 Normal termination of Gaussian 16 at Wed Feb  2 18:06:51 2022.

 ------------------------------------------------------------------
 #N Geom=AllCheck Guess=TCheck SCRF=Check GenChk RB3LYP/ChkBas Freq
 ------------------------------------------------------------------

 Structure from the checkpoint file:  "/wrk/irikura/Gau-16008.chk"
 -------------------
 CHF3, B3LYP/pcseg-2
 -------------------
 Charge =  0 Multiplicity = 1

                         Standard orientation:
 ---------------------------------------------------------------------
 Center     Atomic      Atomic             Coordinates (Angstroms)
 Number     Number       Type             X           Y           Z
 ---------------------------------------------------------------------
      1          6           0        0.000000    0.000000    0.339406
      2          1           0        0.000000    0.000000    1.428455
      3          9           0        0.000000    1.256121   -0.128329
      4          9           0        1.087833   -0.628060   -0.128329
      5          9           0       -1.087833   -0.628060   -0.128329
 ---------------------------------------------------------------------

 SCF Done:  E(RB3LYP) =  -338.390772963     A.U. after    1 cycles

 The electronic state is 1-A1.
 Alpha  occ. eigenvalues --  -24.72439 -24.72439 -24.72438 -10.43801  -1.32977
 Alpha  occ. eigenvalues --   -1.24331  -1.24331  -0.73482  -0.62172  -0.60873
 Alpha  occ. eigenvalues --   -0.60873  -0.48712  -0.48712  -0.45219  -0.45219
 Alpha  occ. eigenvalues --   -0.43054  -0.41317
 Alpha virt. eigenvalues --    0.02136   0.08195   0.08195   0.10698   0.21624
 Alpha virt. eigenvalues --    0.21824   0.21824   0.26140   0.29102   0.39171
 Alpha virt. eigenvalues --    0.39171   0.43751   0.43751   0.44803   0.56846

 Mulliken charges:
               1
     1  C    0.742967
     2  H    0.002826
     3  F   -0.248598
     4  F   -0.248598
     5  F   -0.248598
 Sum of Mulliken charges =  -0.00000

 Dipole moment (field-independent basis, Debye):
    X=              0.0000    Y=             -0.0000    Z=              1.6599  Tot=              1.6599
 Quadrupole moment (field-independent basis, Debye-Ang):
   XX=            -22.5160   YY=            -22.5160   ZZ=            -18.7701
   XY=             -0.0000   XZ=              0.0000   YZ=             -0.0000

  Exact polarizability:  16.855   0.000  16.855  -0.000   0.000  15.404
 Approx polarizability:  21.615  -0.000  21.615  -0.000  -0.000  18.941

                      1                      2                      3
                      E                      E                     A1
 Frequencies --    500.9764               500.9764               692.9175
 Red. masses --     13.8161                13.8161                13.6407
 Frc consts  --      2.0430                 2.0430                 3.8588
 IR Inten    --      2.0233                 2.0234                13.1942

                      4                      5                      6
                     ?A                     ?A                     ?A
 Frequencies --   1132.4016              1134.4023              1134.4115
 Red. masses --      8.4537                 6.0583                 6.0579
 Frc consts  --      6.3870                 4.5934                 4.5932
 IR Inten    --    102.1297               315.2621               315.2528

                      7                      8                      9
                      E                      E                     A1
 Frequencies --   1389.6371              1389.6410              3123.3996
 Red. masses --      1.2043                 1.2043                 1.0895
 Frc consts  --      1.3702                 1.3702                 6.2625
 IR Inten    --     43.6469                43.6499                31.5646

 - Thermochemistry -
 -------------------
 Temperature   298.150 Kelvin.  Pressure   1.00000 Atm.
 Atom     1 has atomic number  6 and mass  12.00000

 Molecular mass:    70.00303 amu.
 Principal axes and moments of inertia in atomic units:
                           1         2         3
     Eigenvalues --   176.03822 176.03822 321.14342
           X            0.75926   0.65079   0.00000
           Y           -0.65079   0.75926   0.00000
           Z           -0.00000  -0.00000   1.00000
 This molecule is an oblate symmetric top.
 Rotational symmetry number  3.
 Rotational temperatures (Kelvin)      0.49202     0.49202     0.26970
 Rotational constants (GHZ):          10.25199    10.25199     5.61974
 Zero-point vibrational energy      65787.2 (Joules/Mol)
                                   15.72352 (Kcal/Mol)
 Warning -- explicit consideration of   2 degrees of freedom as
           vibrations may cause significant error
 Vibrational temperatures:    720.79   720.79   996.95  1629.27  1632.15
          (Kelvin)           1632.17  1999.38  1999.38  4493.88

 Zero-point correction=                           0.025057 (Hartree/Particle)
 Thermal correction to Energy=                    0.028533
 Thermal correction to Enthalpy=                  0.029477
 Thermal correction to Gibbs Free Energy=        -0.000034
 Sum of electronic and zero-point Energies=           -338.365716
 Sum of electronic and thermal Energies=              -338.362240
 Sum of electronic and thermal Enthalpies=            -338.361296
 Sum of electronic and thermal Free Energies=         -338.390807

                     E (Thermal)             CV                S
                      KCal/Mol        Cal/Mol-Kelvin    Cal/Mol-Kelvin
 Total                   17.905             10.277             62.111
 Electronic               0.000              0.000              0.000
 Translational            0.889              2.981             38.655
 Rotational               0.889              2.981             21.630
 Vibrational             16.127              4.315              1.826
 Vibration     1          0.856              1.248              0.656
 Vibration     2          0.856              1.248              0.656

 Optimization completed.
    -- Stationary point found.
 Normal termination of Gaussian 16 at Wed Feb  2 18:08:28 2022.
