 Gaussian 16, Revision B.01,

 ---------------------------------------
 # b3lyp/gen opt freq CPHF(Grid=OneStep)
 ---------------------------------------

 -------------------
 CHF3, B3LYP/pcseg-2
 -------------------
 Symbolic Z-matrix:
 Charge =  0 Multiplicity = 1

 SCF Done:  E(RB3LYP) =  -338.390772963     A.U. after   10 cycles
 Optimization completed.
    -- Stationary point found.
 Normal termination of Gaussian 16 at Fri Sep 29 18:15:05 2023.

 ------------------------------------------------------------------
 #N Geom=AllCheck Guess=TCheck SCRF=Check GenChk RB3LYP/ChkBas Freq
 ------------------------------------------------------------------

 Structure from the checkpoint file:  "chf3.chk"
 -------------------
 CHF3, B3LYP/pcseg-2
 -------------------
 Charge =  0 Multiplicity = 1

 SCF Done:  E(RB3LYP) =  -338.390772963     A.U. after    1 cycles

  Exact polarizability:  16.855  -0.000  16.855   0.000  -0.000  15.404
 Approx polarizability:  21.615  -0.000  21.615  -0.000   0.000  18.941

                      1                      2                      3
                      E                      E                     A1
 Frequencies --    500.9763               500.9765               692.9181
 Red. masses --     13.8162                13.8161                13.6407
 Frc consts  --      2.0430                 2.0430                 3.8588
 IR Inten    --      2.0229                 2.0229                13.1929

                      4                      5                      6
                     A1                      E                      E
 Frequencies --   1132.3979              1134.4101              1134.4125
 Red. masses --      8.4537                 6.0580                 6.0579
 Frc consts  --      6.3870                 4.5932                 4.5932
 IR Inten    --    102.1307               315.2613               315.2701

                      7                      8                      9
                      E                      E                     A1
 Frequencies --   1389.6429              1389.6430              3123.4011
 Red. masses --      1.2043                 1.2043                 1.0895
 Frc consts  --      1.3702                 1.3702                 6.2625
 IR Inten    --     43.6534                43.6512                31.5591

 - Thermochemistry -
 -------------------
 Temperature   298.150 Kelvin.  Pressure   1.00000 Atm.
 Atom     1 has atomic number  6 and mass  12.00000

 Molecular mass:    70.00303 amu.
 Principal axes and moments of inertia in atomic units:
                           1         2         3
     Eigenvalues --   176.03813 176.03813 321.14330
           X           -0.14142   0.98995   0.00000
           Y            0.98995   0.14142   0.00000
           Z           -0.00000  -0.00000   1.00000
 This molecule is an oblate symmetric top.
 Rotational symmetry number  3.
 Rotational temperatures (Kelvin)      0.49202     0.49202     0.26970
 Rotational constants (GHZ):          10.25199    10.25199     5.61974
 Zero-point vibrational energy      65787.3 (Joules/Mol)
                                   15.72354 (Kcal/Mol)
 Warning -- explicit consideration of   2 degrees of freedom as
           vibrations may cause significant error
 Vibrational temperatures:    720.79   720.79   996.95  1629.27  1632.16
          (Kelvin)           1632.17  1999.39  1999.39  4493.88

 Zero-point correction=                           0.025057 (Hartree/Particle)
 Thermal correction to Energy=                    0.028533
 Thermal correction to Enthalpy=                  0.029477
 Thermal correction to Gibbs Free Energy=        -0.000034
 Sum of electronic and zero-point Energies=           -338.365716
 Sum of electronic and thermal Energies=              -338.362240
 Sum of electronic and thermal Enthalpies=            -338.361296
 Sum of electronic and thermal Free Energies=         -338.390807

                     E (Thermal)             CV                S
                      KCal/Mol        Cal/Mol-Kelvin    Cal/Mol-Kelvin
 Total                   17.905             10.277             62.111
 Electronic               0.000              0.000              0.000
 Translational            0.889              2.981             38.655
 Rotational               0.889              2.981             21.630
 Vibrational             16.127              4.315              1.826
 Vibration     1          0.856              1.248              0.656
 Vibration     2          0.856              1.248              0.656

 Optimization completed.
    -- Stationary point found.
 Normal termination of Gaussian 16 at Fri Sep 29 18:15:49 2023.
 Gaussian 16:  ES64L-G16RevB.01 20-Dec-2017

 ---------------------------------
 # rohf/gen geom=check guess=check
 ---------------------------------

 ----------------------
 CHF3, ROHF/cc-pVTZ-F12
 ----------------------
 Structure from the checkpoint file:  "chf3.chk"
 Charge =  0 Multiplicity = 1

                         Standard orientation:
 ---------------------------------------------------------------------
 Center     Atomic      Atomic             Coordinates (Angstroms)
 Number     Number       Type             X           Y           Z
 ---------------------------------------------------------------------
      1          6           0        0.000000    0.000000    0.339406
      2          1           0        0.000000    0.000000    1.428455
      3          9           0        0.000000    1.256121   -0.128329
      4          9           0        1.087832   -0.628060   -0.128329
      5          9           0       -1.087832   -0.628060   -0.128329
 ---------------------------------------------------------------------

 SCF Done:  E(ROHF) =  -336.932649407     A.U. after   10 cycles

 The electronic state is 1-A1.
 Alpha  occ. eigenvalues --  -26.34340 -26.34340 -26.34337 -11.51090  -1.73250
 Alpha  occ. eigenvalues --   -1.64005  -1.64005  -0.99204  -0.84735  -0.82567
 Alpha  occ. eigenvalues --   -0.82567  -0.71370  -0.71370  -0.67138  -0.67138
 Alpha  occ. eigenvalues --   -0.65587  -0.60039
 Alpha virt. eigenvalues --    0.04827   0.06865   0.06865   0.07440   0.17216
 Alpha virt. eigenvalues --    0.17216   0.19471   0.19948   0.19948   0.21098
 Alpha virt. eigenvalues --    0.24423   0.24423   0.25775   0.26344   0.29355

 Mulliken charges and spin densities:
               1          2
     1  C    0.799624   0.000000
     2  H    0.189962   0.000000
     3  F   -0.329862   0.000000
     4  F   -0.329862   0.000000
     5  F   -0.329862   0.000000
 Sum of Mulliken charges =  -0.00000   0.00000

 Dipole moment (field-independent basis, Debye):
    X=              0.0000    Y=             -0.0000    Z=              1.8608  Tot=              1.8608
 Quadrupole moment (field-independent basis, Debye-Ang):
   XX=            -22.4009   YY=            -22.4009   ZZ=            -18.2121
   XY=              0.0000   XZ=             -0.0000   YZ=              0.0000

 Normal termination of Gaussian 16 at Fri Sep 29 18:16:00 2023.
