 Gaussian 16, Revision B.01,
 Gaussian 16:  ES64L-G16RevB.01 20-Dec-2017

 --------------------
 # b3lyp/gen opt freq
 --------------------

 ------------------------------
 fluoromethylene, B3LYP/pcseg-2
 ------------------------------
 Symbolic Z-matrix:
 Charge =  0 Multiplicity = 1

 SCF Done:  E(RB3LYP) =  -138.467838669     A.U. after   11 cycles
 SCF Done:  E(RB3LYP) =  -138.467844884     A.U. after    7 cycles
 SCF Done:  E(RB3LYP) =  -138.467845313     A.U. after    7 cycles
 Optimization completed.
    -- Stationary point found.
 Normal termination of Gaussian 16 at Fri Jun 17 16:25:52 2022.

 ------------------------------------------------------------------
 #N Geom=AllCheck Guess=TCheck SCRF=Check GenChk RB3LYP/ChkBas Freq
 ------------------------------------------------------------------

 Structure from the checkpoint file:  "/wrk/irikura/Gau-22043.chk"
 ------------------------------
 fluoromethylene, B3LYP/pcseg-2
 ------------------------------
 Charge =  0 Multiplicity = 1

                         Standard orientation:
 ---------------------------------------------------------------------
 Center     Atomic      Atomic             Coordinates (Angstroms)
 Number     Number       Type             X           Y           Z
 ---------------------------------------------------------------------
      1          1           0       -1.028033    0.957805    0.000000
      2          6           0        0.068536    0.722409    0.000000
      3          9           0        0.068536   -0.588029    0.000000
 ---------------------------------------------------------------------

 SCF Done:  E(RB3LYP) =  -138.467845313     A.U. after    1 cycles

 The electronic state is 1-A'.
 Alpha  occ. eigenvalues --  -24.75380 -10.31001  -1.29380  -0.69740  -0.55228
 Alpha  occ. eigenvalues --   -0.52051  -0.47858  -0.26192
 Alpha virt. eigenvalues --   -0.11624   0.02787   0.07510   0.17228   0.17562
 Alpha virt. eigenvalues --    0.22554   0.29803   0.31000   0.40181   0.46902
 Alpha virt. eigenvalues --    0.47071   0.68823   0.76999   0.83760   0.99535

 Mulliken charges:
               1
     1  H    0.020928
     2  C    0.131204
     3  F   -0.152132
 Sum of Mulliken charges =   0.00000

 Dipole moment (field-independent basis, Debye):
    X=             -1.5203    Y=             -0.2048    Z=              0.0000  Tot=              1.5340
 Quadrupole moment (field-independent basis, Debye-Ang):
   XX=            -12.0633   YY=            -12.8519   ZZ=            -10.4835
   XY=             -1.8289   XZ=              0.0000   YZ=              0.0000

  Exact polarizability:  16.441  -1.624  15.277   0.000  -0.000  11.778
 Approx polarizability:  19.170  -2.867  20.803  -0.000  -0.000  16.945

                      1                      2                      3
                     A'                     A'                     A'
 Frequencies --   1199.5425              1442.5964              2772.1520
 Red. masses --     13.5526                 1.1511                 1.0838
 Frc consts  --     11.4896                 1.4115                 4.9071
 IR Inten    --    175.5191                25.5545               177.2921

 - Thermochemistry -
 -------------------
 Temperature   298.150 Kelvin.  Pressure   1.00000 Atm.
 Atom     1 has atomic number  1 and mass   1.00783

 Molecular mass:    32.00623 amu.
 Principal axes and moments of inertia in atomic units:
                           1         2         3
     Eigenvalues --     3.84138  49.21087  53.05225
           X           -0.08783   0.99614   0.00000
           Y            0.99614   0.08783   0.00000
           Z           -0.00000   0.00000   1.00000
 This molecule is an asymmetric top.
 Rotational symmetry number  1.
 Rotational temperatures (Kelvin)     22.54761     1.76006     1.63262
 Rotational constants (GHZ):         469.81586    36.67363    34.01818
 Zero-point vibrational energy      32384.7 (Joules/Mol)
                                    7.74012 (Kcal/Mol)
 Vibrational temperatures:   1725.87  2075.57  3988.51
          (Kelvin)

 Zero-point correction=                           0.012335 (Hartree/Particle)
 Thermal correction to Energy=                    0.015190
 Thermal correction to Enthalpy=                  0.016134
 Thermal correction to Gibbs Free Energy=        -0.009207
 Sum of electronic and zero-point Energies=           -138.455511
 Sum of electronic and thermal Energies=              -138.452655
 Sum of electronic and thermal Enthalpies=            -138.451711
 Sum of electronic and thermal Free Energies=         -138.477052

                     E (Thermal)             CV                S
                      KCal/Mol        Cal/Mol-Kelvin    Cal/Mol-Kelvin
 Total                    9.532              6.259             53.336
 Electronic               0.000              0.000              0.000
 Translational            0.889              2.981             36.322
 Rotational               0.889              2.981             16.957
 Vibrational              7.755              0.297              0.056

 Optimization completed.
    -- Stationary point found.
 Normal termination of Gaussian 16 at Fri Jun 17 16:25:59 2022.
