 Gaussian 16, Revision B.01,

 ---------------------------------------
 # b3lyp/gen opt freq CPHF(Grid=OneStep)
 ---------------------------------------

 ---------------------------------------
 cis-1,2-difluoroethylene, B3LYP/pcseg-2
 ---------------------------------------
 Symbolic Z-matrix:
 Charge =  0 Multiplicity = 1

 SCF Done:  E(RB3LYP) =  -277.175920512     A.U. after   11 cycles
 Optimization completed.
    -- Stationary point found.
 Normal termination of Gaussian 16 at Sun Oct  1 04:46:49 2023.

 ------------------------------------------------------------------
 #N Geom=AllCheck Guess=TCheck SCRF=Check GenChk RB3LYP/ChkBas Freq
 ------------------------------------------------------------------

 Structure from the checkpoint file:  "chfchf.chk"
 ---------------------------------------
 cis-1,2-difluoroethylene, B3LYP/pcseg-2
 ---------------------------------------
 Charge =  0 Multiplicity = 1

 SCF Done:  E(RB3LYP) =  -277.175920512     A.U. after    1 cycles

  Exact polarizability:  18.290   0.000  34.602   0.000  -0.000  24.369
 Approx polarizability:  24.358   0.000  52.423   0.000   0.000  32.305

                      1                      2                      3
                     A1                     A2                     B2
 Frequencies --    238.3332               514.6652               775.9893
 Red. masses --     14.5054                 3.7770                 8.1028
 Frc consts  --      0.4855                 0.5895                 2.8747
 IR Inten    --      2.2248                 0.0000                32.3520

                      4                      5                      6
                     B1                     A2                     A1
 Frequencies --    776.8082               872.8850              1019.0218
 Red. masses --      1.2855                 1.2936                 4.4071
 Frc consts  --      0.4570                 0.5807                 2.6963
 IR Inten    --     50.2720                 0.0000                71.7421

                      7                      8                      9
                     B2                     A1                     B2
 Frequencies --   1133.3513              1285.2526              1394.1510
 Red. masses --      3.6841                 1.2290                 1.3874
 Frc consts  --      2.7882                 1.1962                 1.5888
 IR Inten    --    137.7794                37.3545                30.9433

                     10                     11                     12
                     A1                     B2                     A1
 Frequencies --   1760.1939              3217.8430              3240.2824
 Red. masses --      6.8241                 1.0860                 1.1030
 Frc consts  --     12.4570                 6.6254                 6.8231
 IR Inten    --     58.8610                 4.6069                 6.2501

 - Thermochemistry -
 -------------------
 Temperature   298.150 Kelvin.  Pressure   1.00000 Atm.
 Atom     1 has atomic number  6 and mass  12.00000

 Molecular mass:    64.01246 amu.
 Principal axes and moments of inertia in atomic units:
                           1         2         3
     Eigenvalues --    84.72341 308.30528 393.02869
           X            0.00000   0.00000   1.00000
           Y            1.00000   0.00000   0.00000
           Z            0.00000   1.00000   0.00000
 This molecule is an asymmetric top.
 Rotational symmetry number  2.
 Rotational temperatures (Kelvin)      1.02231     0.28094     0.22038
 Rotational constants (GHZ):          21.30157     5.85375     4.59188
 Zero-point vibrational energy      97069.6 (Joules/Mol)
                                   23.20020 (Kcal/Mol)
 Warning -- explicit consideration of   2 degrees of freedom as
           vibrations may cause significant error
 Vibrational temperatures:    342.91   740.49  1116.48  1117.65  1255.89
          (Kelvin)           1466.15  1630.64  1849.19  2005.87  2532.53
                             4629.76  4662.04

 Zero-point correction=                           0.036972 (Hartree/Particle)
 Thermal correction to Energy=                    0.040829
 Thermal correction to Enthalpy=                  0.041773
 Thermal correction to Gibbs Free Energy=         0.011319
 Sum of electronic and zero-point Energies=           -277.138949
 Sum of electronic and thermal Energies=              -277.135092
 Sum of electronic and thermal Enthalpies=            -277.134147
 Sum of electronic and thermal Free Energies=         -277.164601

                     E (Thermal)             CV                S
                      KCal/Mol        Cal/Mol-Kelvin    Cal/Mol-Kelvin
 Total                   25.621             11.782             64.095
 Electronic               0.000              0.000              0.000
 Translational            0.889              2.981             38.388
 Rotational               0.889              2.981             22.467
 Vibrational             23.843              5.821              3.240
 Vibration     1          0.656              1.782              1.815
 Vibration     2          0.870              1.218              0.622

 Optimization completed.
    -- Stationary point found.
 Normal termination of Gaussian 16 at Sun Oct  1 04:47:44 2023.
 Gaussian 16:  ES64L-G16RevB.01 20-Dec-2017

 ---------------------------------
 # rohf/gen geom=check guess=check
 ---------------------------------

 ------------------------------------------
 cis-1,2-difluoroethylene, ROHF/cc-pVTZ-F12
 ------------------------------------------
 Structure from the checkpoint file:  "chfchf.chk"
 Charge =  0 Multiplicity = 1

                         Standard orientation:
 ---------------------------------------------------------------------
 Center     Atomic      Atomic             Coordinates (Angstroms)
 Number     Number       Type             X           Y           Z
 ---------------------------------------------------------------------
      1          6           0        0.000000    0.660184    0.578315
      2          6           0       -0.000000   -0.660184    0.578315
      3          9           0        0.000000    1.383643   -0.550460
      4          9           0       -0.000000   -1.383643   -0.550460
      5          1           0        0.000000    1.246208    1.484251
      6          1           0       -0.000000   -1.246208    1.484251
 ---------------------------------------------------------------------

 SCF Done:  E(ROHF) =  -275.855607086     A.U. after   10 cycles

 The electronic state is 1-A1.
 Alpha  occ. eigenvalues --  -26.31999 -26.31999 -11.33648 -11.33465  -1.64397
 Alpha  occ. eigenvalues --   -1.63090  -1.06904  -0.86066  -0.77939  -0.75516
 Alpha  occ. eigenvalues --   -0.71555  -0.70074  -0.68937  -0.61924  -0.58243
 Alpha  occ. eigenvalues --   -0.39350
 Alpha virt. eigenvalues --    0.04842   0.05192   0.07302   0.07600   0.09083
 Alpha virt. eigenvalues --    0.09110   0.10608   0.17330   0.18099   0.18141
 Alpha virt. eigenvalues --    0.21380   0.21424   0.21880   0.24179   0.24688

 Mulliken charges and spin densities:
               1          2
     1  C    0.130234   0.000000
     2  C    0.130234   0.000000
     3  F   -0.335287   0.000000
     4  F   -0.335287   0.000000
     5  H    0.205053   0.000000
     6  H    0.205053   0.000000
 Sum of Mulliken charges =  -0.00000   0.00000

 Dipole moment (field-independent basis, Debye):
    X=              0.0000    Y=              0.0000    Z=              2.7165  Tot=              2.7165
 Quadrupole moment (field-independent basis, Debye-Ang):
   XX=            -22.6037   YY=            -22.3622   ZZ=            -19.9311
   XY=             -0.0000   XZ=             -0.0000   YZ=             -0.0000

 Normal termination of Gaussian 16 at Sun Oct  1 04:48:08 2023.
