 Gaussian 16, Revision B.01,
 Gaussian 16:  ES64L-G16RevB.01 20-Dec-2017

 --------------------
 # b3lyp/gen opt freq
 --------------------

 ------------------------------------
 chlorodifluoromethane, B3LYP/pcseg-2
 ------------------------------------
 Symbolic Z-matrix:
 Charge =  0 Multiplicity = 1

 SCF Done:  E(RB3LYP) =  -1059.07372554     A.U. after   12 cycles
 SCF Done:  E(RB3LYP) =  -1059.07387356     A.U. after    8 cycles
 SCF Done:  E(RB3LYP) =  -1059.07392518     A.U. after    8 cycles
 SCF Done:  E(RB3LYP) =  -1059.07392649     A.U. after    7 cycles
 Optimization completed.
    -- Stationary point found.
 Normal termination of Gaussian 16 at Thu Jun 16 09:06:43 2022.

 ------------------------------------------------------------------
 #N Geom=AllCheck Guess=TCheck SCRF=Check GenChk RB3LYP/ChkBas Freq
 ------------------------------------------------------------------

 Structure from the checkpoint file:  "/wrk/irikura/Gau-21132.chk"
 ------------------------------------
 chlorodifluoromethane, B3LYP/pcseg-2
 ------------------------------------
 Charge =  0 Multiplicity = 1

                         Standard orientation:
 ---------------------------------------------------------------------
 Center     Atomic      Atomic             Coordinates (Angstroms)
 Number     Number       Type             X           Y           Z
 ---------------------------------------------------------------------
      1          6           0       -0.177871    0.521946   -0.000000
      2          1           0       -1.074607    1.130098    0.000000
      3          9           0        0.909938    1.320284   -0.000000
      4         17           0       -0.177871   -0.474833    1.473045
      5         17           0       -0.177871   -0.474833   -1.473045
 ---------------------------------------------------------------------

 SCF Done:  E(RB3LYP) =  -1059.07392649     A.U. after    1 cycles

 The electronic state is 1-A'.
 Alpha  occ. eigenvalues -- -101.53841-101.53841 -24.72504 -10.39000  -9.48402
 Alpha  occ. eigenvalues --   -9.48402  -7.24585  -7.24585  -7.23663  -7.23663
 Alpha  occ. eigenvalues --   -7.23643  -7.23643  -1.27060  -0.91591  -0.85209
 Alpha  occ. eigenvalues --   -0.68948  -0.57756  -0.53731  -0.53135  -0.42564
 Alpha  occ. eigenvalues --   -0.41946  -0.36441  -0.34413  -0.34139  -0.32926
 Alpha virt. eigenvalues --   -0.03204   0.01420   0.02196   0.06055   0.12995
 Alpha virt. eigenvalues --    0.13531   0.20848   0.23470   0.26889   0.28584
 Alpha virt. eigenvalues --    0.31236   0.32515   0.32556   0.34208   0.34603

 Mulliken charges:
               1
     1  C    0.308700
     2  H    0.083519
     3  F   -0.230820
     4  Cl  -0.080699
     5  Cl  -0.080699
 Sum of Mulliken charges =  -0.00000

 Dipole moment (field-independent basis, Debye):
    X=             -1.2159    Y=              0.5636    Z=              0.0000  Tot=              1.3402
 Quadrupole moment (field-independent basis, Debye-Ang):
   XX=            -36.3181   YY=            -36.0335   ZZ=            -36.6664
   XY=             -2.0551   XZ=             -0.0000   YZ=              0.0000

  Exact polarizability:  27.278   1.173  33.059  -0.000  -0.000  47.511
 Approx polarizability:  40.121   2.155  50.356   0.000   0.000  68.441

                      1                      2                      3
                     A'                     A"                     A'
 Frequencies --    271.3096               361.9148               451.3902
 Red. masses --     21.6140                20.1295                17.5507
 Frc consts  --      0.9374                 1.5534                 2.1069
 IR Inten    --      0.0297                 0.0316                 1.4021

                      4                      5                      6
                     A'                     A"                     A'
 Frequencies --    721.0402               766.0700              1076.3424
 Red. masses --      6.3974                 8.1356                11.4797
 Frc consts  --      1.9596                 2.8131                 7.8358
 IR Inten    --     47.3159               263.4308               211.4731

                      7                      8                      9
                     A"                     A'                     A'
 Frequencies --   1250.5595              1332.9990              3151.0356
 Red. masses --      1.0945                 1.1133                 1.0886
 Frc consts  --      1.0085                 1.1655                 6.3681
 IR Inten    --     57.9351                14.9082                 2.5203

 - Thermochemistry -
 -------------------
 Temperature   298.150 Kelvin.  Pressure   1.00000 Atm.
 Atom     1 has atomic number  6 and mass  12.00000

 Molecular mass:   101.94393 amu.
 Principal axes and moments of inertia in atomic units:
                           1         2         3
     Eigenvalues --   260.32102 559.96517 784.21021
           X            0.00000   0.47903   0.87780
           Y            0.00000   0.87780  -0.47903
           Z            1.00000  -0.00000   0.00000
 This molecule is an asymmetric top.
 Rotational symmetry number  1.
 Rotational temperatures (Kelvin)      0.33272     0.15468     0.11045
 Rotational constants (GHZ):           6.93275     3.22295     2.30135
 Zero-point vibrational energy      56120.8 (Joules/Mol)
                                   13.41319 (Kcal/Mol)
 Warning -- explicit consideration of   3 degrees of freedom as
           vibrations may cause significant error
 Vibrational temperatures:    390.35   520.71   649.45  1037.42  1102.20
          (Kelvin)           1548.62  1799.28  1917.89  4533.64

 Zero-point correction=                           0.021375 (Hartree/Particle)
 Thermal correction to Energy=                    0.025520
 Thermal correction to Enthalpy=                  0.026464
 Thermal correction to Gibbs Free Energy=        -0.006867
 Sum of electronic and zero-point Energies=          -1059.052551
 Sum of electronic and thermal Energies=             -1059.048406
 Sum of electronic and thermal Enthalpies=           -1059.047462
 Sum of electronic and thermal Free Energies=        -1059.080794

                     E (Thermal)             CV                S
                      KCal/Mol        Cal/Mol-Kelvin    Cal/Mol-Kelvin
 Total                   16.014             12.702             70.152
 Electronic               0.000              0.000              0.000
 Translational            0.889              2.981             39.775
 Rotational               0.889              2.981             26.239
 Vibrational             14.237              6.740              4.138
 Vibration     1          0.675              1.726              1.588
 Vibration     2          0.736              1.551              1.114
 Vibration     3          0.810              1.358              0.792

 Optimization completed.
    -- Stationary point found.
 Normal termination of Gaussian 16 at Thu Jun 16 09:07:04 2022.
