 Gaussian 16, Revision B.01,
 Gaussian 16:  ES64L-G16RevB.01 20-Dec-2017

 --------------------
 # b3lyp/gen opt freq
 --------------------

 ---------------------------------------
 cis-1,2-difluoroethylene, B3LYP/pcseg-2
 ---------------------------------------
 Symbolic Z-matrix:
 Charge =  0 Multiplicity = 1

 SCF Done:  E(RB3LYP) =  -277.175910015     A.U. after   11 cycles
 SCF Done:  E(RB3LYP) =  -277.175920513     A.U. after    7 cycles
 Optimization completed.
    -- Stationary point found.
 Normal termination of Gaussian 16 at Mon Jun 20 10:22:56 2022.

 ------------------------------------------------------------------
 #N Geom=AllCheck Guess=TCheck SCRF=Check GenChk RB3LYP/ChkBas Freq
 ------------------------------------------------------------------

 Structure from the checkpoint file:  "/wrk/irikura/Gau-8804.chk"
 ---------------------------------------
 cis-1,2-difluoroethylene, B3LYP/pcseg-2
 ---------------------------------------
 Charge =  0 Multiplicity = 1

                         Standard orientation:
 ---------------------------------------------------------------------
 Center     Atomic      Atomic             Coordinates (Angstroms)
 Number     Number       Type             X           Y           Z
 ---------------------------------------------------------------------
      1          6           0        0.000000    0.660184    0.578315
      2          6           0       -0.000000   -0.660184    0.578315
      3          9           0        0.000000    1.383643   -0.550460
      4          9           0       -0.000000   -1.383643   -0.550460
      5          1           0        0.000000    1.246208    1.484251
      6          1           0       -0.000000   -1.246208    1.484251
 ---------------------------------------------------------------------

 SCF Done:  E(RB3LYP) =  -277.175920513     A.U. after    1 cycles

 The electronic state is 1-A1.
 Alpha  occ. eigenvalues --  -24.70440 -24.70440 -10.27021 -10.26921  -1.24881
 Alpha  occ. eigenvalues --   -1.23630  -0.79329  -0.63531  -0.56886  -0.55656
 Alpha  occ. eigenvalues --   -0.49896  -0.49545  -0.46547  -0.42026  -0.39158
 Alpha  occ. eigenvalues --   -0.27582
 Alpha virt. eigenvalues --   -0.00124   0.01244   0.03899   0.05374   0.12686
 Alpha virt. eigenvalues --    0.15007   0.16143   0.21403   0.22366   0.23484
 Alpha virt. eigenvalues --    0.27245   0.30809   0.32111   0.36303   0.40513

 Mulliken charges:
               1
     1  C    0.214136
     2  C    0.214136
     3  F   -0.261576
     4  F   -0.261576
     5  H    0.047440
     6  H    0.047440
 Sum of Mulliken charges =   0.00000

 Dipole moment (field-independent basis, Debye):
    X=              0.0000    Y=              0.0000    Z=              2.4284  Tot=              2.4284
 Quadrupole moment (field-independent basis, Debye-Ang):
   XX=            -22.7086   YY=            -22.4645   ZZ=            -20.0996
   XY=             -0.0000   XZ=             -0.0000   YZ=              0.0000

  Exact polarizability:  18.289  -0.000  34.602   0.000  -0.000  24.369
 Approx polarizability:  24.358   0.000  52.423   0.000  -0.000  32.305

                      1                      2                      3
                     A1                     A2                     B2
 Frequencies --    238.3382               514.6654               775.9863
 Red. masses --     14.5055                 3.7770                 8.1029
 Frc consts  --      0.4855                 0.5894                 2.8747
 IR Inten    --      2.2252                 0.0000                32.3528

                      4                      5                      6
                     B1                     A2                     A1
 Frequencies --    776.8143               872.8866              1019.0245
 Red. masses --      1.2855                 1.2936                 4.4071
 Frc consts  --      0.4570                 0.5807                 2.6963
 IR Inten    --     50.2708                 0.0000                71.7438

                      7                      8                      9
                     B2                     A1                     B2
 Frequencies --   1133.3399              1285.2542              1394.1458
 Red. masses --      3.6845                 1.2290                 1.3873
 Frc consts  --      2.7883                 1.1962                 1.5887
 IR Inten    --    137.7806                37.3537                30.9399

                     10                     11                     12
                     A1                     B2                     A1
 Frequencies --   1760.2079              3217.8414              3240.2827
 Red. masses --      6.8239                 1.0860                 1.1030
 Frc consts  --     12.4570                 6.6254                 6.8231
 IR Inten    --     58.8631                 4.6075                 6.2491

 - Thermochemistry -
 -------------------
 Temperature   298.150 Kelvin.  Pressure   1.00000 Atm.
 Atom     1 has atomic number  6 and mass  12.00000

 Molecular mass:    64.01246 amu.
 Principal axes and moments of inertia in atomic units:
                           1         2         3
     Eigenvalues --    84.72337 308.30528 393.02865
           X            0.00000   0.00000   1.00000
           Y            1.00000   0.00000   0.00000
           Z            0.00000   1.00000   0.00000
 This molecule is an asymmetric top.
 Rotational symmetry number  2.
 Rotational temperatures (Kelvin)      1.02231     0.28094     0.22038
 Rotational constants (GHZ):          21.30157     5.85375     4.59188
 Zero-point vibrational energy      97069.7 (Joules/Mol)
                                   23.20022 (Kcal/Mol)
 Warning -- explicit consideration of   2 degrees of freedom as
           vibrations may cause significant error
 Vibrational temperatures:    342.92   740.49  1116.47  1117.66  1255.89
          (Kelvin)           1466.15  1630.62  1849.19  2005.86  2532.55
                             4629.76  4662.04

 Zero-point correction=                           0.036972 (Hartree/Particle)
 Thermal correction to Energy=                    0.040829
 Thermal correction to Enthalpy=                  0.041773
 Thermal correction to Gibbs Free Energy=         0.011320
 Sum of electronic and zero-point Energies=           -277.138949
 Sum of electronic and thermal Energies=              -277.135092
 Sum of electronic and thermal Enthalpies=            -277.134147
 Sum of electronic and thermal Free Energies=         -277.164601

                     E (Thermal)             CV                S
                      KCal/Mol        Cal/Mol-Kelvin    Cal/Mol-Kelvin
 Total                   25.621             11.782             64.095
 Electronic               0.000              0.000              0.000
 Translational            0.889              2.981             38.388
 Rotational               0.889              2.981             22.467
 Vibrational             23.843              5.821              3.240
 Vibration     1          0.656              1.782              1.815
 Vibration     2          0.870              1.218              0.622

 Optimization completed.
    -- Stationary point found.
 Normal termination of Gaussian 16 at Mon Jun 20 10:23:14 2022.
