 Gaussian 16, Revision B.01,

 ---------------------------------------
 # b3lyp/gen opt freq CPHF(Grid=OneStep)
 ---------------------------------------

 ------------------------------------
 chlorodifluoromethane, B3LYP/pcseg-2
 ------------------------------------
 Symbolic Z-matrix:
 Charge =  0 Multiplicity = 1

 SCF Done:  E(RB3LYP) =  -1059.07392649     A.U. after   12 cycles
 Optimization completed.
    -- Stationary point found.
 Normal termination of Gaussian 16 at Thu Sep 28 15:39:28 2023.

 ------------------------------------------------------------------
 #N Geom=AllCheck Guess=TCheck SCRF=Check GenChk RB3LYP/ChkBas Freq
 ------------------------------------------------------------------

 Structure from the checkpoint file:  "chfcl2.chk"
 ------------------------------------
 chlorodifluoromethane, B3LYP/pcseg-2
 ------------------------------------
 Charge =  0 Multiplicity = 1

 SCF Done:  E(RB3LYP) =  -1059.07392649     A.U. after    1 cycles

  Exact polarizability:  27.278   1.173  33.059   0.000  -0.000  47.511
 Approx polarizability:  40.121   2.155  50.356   0.000   0.000  68.441

                      1                      2                      3
                     A'                     A"                     A'
 Frequencies --    271.3195               361.9121               451.3818
 Red. masses --     21.6142                20.1294                17.5505
 Frc consts  --      0.9375                 1.5534                 2.1068
 IR Inten    --      0.0296                 0.0316                 1.4025

                      4                      5                      6
                     A'                     A"                     A'
 Frequencies --    721.0383               766.0817              1076.3394
 Red. masses --      6.3973                 8.1352                11.4798
 Frc consts  --      1.9596                 2.8130                 7.8358
 IR Inten    --     47.3125               263.4467               211.4937

                      7                      8                      9
                     A"                     A'                     A'
 Frequencies --   1250.5609              1332.9977              3151.0323
 Red. masses --      1.0945                 1.1133                 1.0886
 Frc consts  --      1.0085                 1.1655                 6.3681
 IR Inten    --     57.9491                14.9094                 2.5209

 - Thermochemistry -
 -------------------
 Temperature   298.150 Kelvin.  Pressure   1.00000 Atm.
 Atom     1 has atomic number  6 and mass  12.00000

 Molecular mass:   101.94393 amu.
 Principal axes and moments of inertia in atomic units:
                           1         2         3
     Eigenvalues --   260.32106 559.96542 784.21052
           X            0.00000   0.47903   0.87780
           Y            0.00000   0.87780  -0.47903
           Z            1.00000   0.00000  -0.00000
 This molecule is an asymmetric top.
 Rotational symmetry number  1.
 Rotational temperatures (Kelvin)      0.33272     0.15468     0.11045
 Rotational constants (GHZ):           6.93275     3.22295     2.30135
 Zero-point vibrational energy      56120.8 (Joules/Mol)
                                   13.41319 (Kcal/Mol)
 Warning -- explicit consideration of   3 degrees of freedom as
           vibrations may cause significant error
 Vibrational temperatures:    390.37   520.71   649.44  1037.41  1102.22
          (Kelvin)           1548.61  1799.28  1917.89  4533.63

 Zero-point correction=                           0.021375 (Hartree/Particle)
 Thermal correction to Energy=                    0.025520
 Thermal correction to Enthalpy=                  0.026464
 Thermal correction to Gibbs Free Energy=        -0.006867
 Sum of electronic and zero-point Energies=          -1059.052551
 Sum of electronic and thermal Energies=             -1059.048406
 Sum of electronic and thermal Enthalpies=           -1059.047462
 Sum of electronic and thermal Free Energies=        -1059.080794

                     E (Thermal)             CV                S
                      KCal/Mol        Cal/Mol-Kelvin    Cal/Mol-Kelvin
 Total                   16.014             12.702             70.152
 Electronic               0.000              0.000              0.000
 Translational            0.889              2.981             39.775
 Rotational               0.889              2.981             26.239
 Vibrational             14.237              6.740              4.138
 Vibration     1          0.675              1.726              1.588
 Vibration     2          0.736              1.551              1.114
 Vibration     3          0.810              1.358              0.792

 Optimization completed.
    -- Stationary point found.
 Normal termination of Gaussian 16 at Thu Sep 28 15:40:32 2023.
 Gaussian 16:  ES64L-G16RevB.01 20-Dec-2017

 ---------------------------------
 # rohf/gen geom=check guess=check
 ---------------------------------

 ---------------------------------------
 chlorodifluoromethane, ROHF/cc-pVTZ-F12
 ---------------------------------------
 Structure from the checkpoint file:  "chfcl2.chk"
 Charge =  0 Multiplicity = 1

                         Standard orientation:
 ---------------------------------------------------------------------
 Center     Atomic      Atomic             Coordinates (Angstroms)
 Number     Number       Type             X           Y           Z
 ---------------------------------------------------------------------
      1          6           0       -0.177871    0.521946   -0.000000
      2          1           0       -1.074607    1.130098   -0.000000
      3          9           0        0.909938    1.320284   -0.000000
      4         17           0       -0.177871   -0.474833    1.473045
      5         17           0       -0.177871   -0.474833   -1.473045
 ---------------------------------------------------------------------

 SCF Done:  E(ROHF) =  -1056.98254296     A.U. after   11 cycles

 The electronic state is 1-A'.
 Alpha  occ. eigenvalues -- -104.86548-104.86548 -26.34194 -11.46304 -10.59080
 Alpha  occ. eigenvalues --  -10.59079  -8.05767  -8.05767  -8.05599  -8.05599
 Alpha  occ. eigenvalues --   -8.05594  -8.05594  -1.66653  -1.19739  -1.11670
 Alpha  occ. eigenvalues --   -0.91997  -0.77952  -0.74029  -0.72376  -0.60495
 Alpha  occ. eigenvalues --   -0.57188  -0.50523  -0.48391  -0.47703  -0.46292
 Alpha virt. eigenvalues --    0.05034   0.05902   0.06378   0.08047   0.10221
 Alpha virt. eigenvalues --    0.10299   0.11289   0.11742   0.11811   0.14424
 Alpha virt. eigenvalues --    0.16372   0.19652   0.21079   0.21708   0.24075

 Mulliken charges and spin densities:
               1          2
     1  C    0.087520   0.000000
     2  H    0.190366   0.000000
     3  F   -0.310096   0.000000
     4  Cl   0.016105   0.000000
     5  Cl   0.016105   0.000000
 Sum of Mulliken charges =  -0.00000   0.00000

 Dipole moment (field-independent basis, Debye):
    X=             -1.3351    Y=              0.5565    Z=              0.0000  Tot=              1.4465
 Quadrupole moment (field-independent basis, Debye-Ang):
   XX=            -36.3532   YY=            -36.0256   ZZ=            -36.5787
   XY=             -2.3050   XZ=              0.0000   YZ=             -0.0000

 Normal termination of Gaussian 16 at Thu Sep 28 15:41:04 2023.
