 Gaussian 16, Revision B.01,
 Gaussian 16:  ES64L-G16RevB.01 20-Dec-2017

 --------------------
 # b3lyp/gen opt freq
 --------------------

 ------------------------------
 formyl fluoride, B3LYP/pcseg-2
 ------------------------------
 Symbolic Z-matrix:
 Charge =  0 Multiplicity = 1

 SCF Done:  E(RB3LYP) =  -213.864932957     A.U. after   12 cycles
 SCF Done:  E(RB3LYP) =  -213.865051816     A.U. after    8 cycles
 SCF Done:  E(RB3LYP) =  -213.865082976     A.U. after    8 cycles
 SCF Done:  E(RB3LYP) =  -213.865084262     A.U. after    7 cycles
 Optimization completed.
    -- Stationary point found.
 Normal termination of Gaussian 16 at Thu Jun 16 09:07:16 2022.

 ------------------------------------------------------------------
 #N Geom=AllCheck Guess=TCheck SCRF=Check GenChk RB3LYP/ChkBas Freq
 ------------------------------------------------------------------

 Structure from the checkpoint file:  "/wrk/irikura/Gau-21945.chk"
 ------------------------------
 formyl fluoride, B3LYP/pcseg-2
 ------------------------------
 Charge =  0 Multiplicity = 1

                         Standard orientation:
 ---------------------------------------------------------------------
 Center     Atomic      Atomic             Coordinates (Angstroms)
 Number     Number       Type             X           Y           Z
 ---------------------------------------------------------------------
      1          6           0        0.000000    0.399807    0.000000
      2          8           0        1.145439    0.136108    0.000000
      3          9           0       -0.966544   -0.541938   -0.000000
      4          1           0       -0.464615    1.389738   -0.000000
 ---------------------------------------------------------------------

 SCF Done:  E(RB3LYP) =  -213.865084262     A.U. after    1 cycles

 The electronic state is 1-A'.
 Alpha  occ. eigenvalues --  -24.72384 -19.17051 -10.36035  -1.26825  -1.10598
 Alpha  occ. eigenvalues --   -0.67675  -0.58234  -0.51980  -0.51581  -0.43388
 Alpha  occ. eigenvalues --   -0.40892  -0.34466
 Alpha virt. eigenvalues --   -0.05027   0.02371   0.07594   0.10310   0.14409
 Alpha virt. eigenvalues --    0.21625   0.26737   0.29637   0.33082   0.39027
 Alpha virt. eigenvalues --    0.40080   0.47308   0.48661   0.51665   0.57410

 Mulliken charges:
               1
     1  C    0.490263
     2  O   -0.299497
     3  F   -0.237391
     4  H    0.046625
 Sum of Mulliken charges =   0.00000

 Dipole moment (field-independent basis, Debye):
    X=             -1.3003    Y=              1.7071    Z=             -0.0000  Tot=              2.1459
 Quadrupole moment (field-independent basis, Debye-Ang):
   XX=            -19.3024   YY=            -14.9656   ZZ=            -15.3718
   XY=             -1.2471   XZ=             -0.0000   YZ=             -0.0000

  Exact polarizability:  21.574  -0.003  15.748   0.000  -0.000  10.963
 Approx polarizability:  33.698  -0.028  19.721   0.000  -0.000  14.466

                      1                      2                      3
                     A'                     A"                     A'
 Frequencies --    663.9919              1032.2600              1060.0577
 Red. masses --     12.9608                 1.6709                 8.9474
 Frc consts  --      3.3667                 1.0490                 5.9239
 IR Inten    --     20.5528                 0.0105               274.7035

                      4                      5                      6
                     A'                     A'                     A'
 Frequencies --   1365.6194              1886.6201              3086.5056
 Red. masses --      1.1007                 9.4954                 1.0993
 Frc consts  --      1.2094                19.9129                 6.1704
 IR Inten    --      0.8851               297.0195                26.9747

 - Thermochemistry -
 -------------------
 Temperature   298.150 Kelvin.  Pressure   1.00000 Atm.
 Atom     1 has atomic number  6 and mass  12.00000

 Molecular mass:    48.00114 amu.
 Principal axes and moments of inertia in atomic units:
                           1         2         3
     Eigenvalues --    19.70155 153.88879 173.59034
           X            0.94321  -0.33220   0.00000
           Y            0.33220   0.94321   0.00000
           Z           -0.00000   0.00000   1.00000
 This molecule is an asymmetric top.
 Rotational symmetry number  1.
 Rotational temperatures (Kelvin)      4.39630     0.56283     0.49896
 Rotational constants (GHZ):          91.60401    11.72757    10.39655
 Zero-point vibrational energy      54400.5 (Joules/Mol)
                                   13.00203 (Kcal/Mol)
 Vibrational temperatures:    955.34  1485.19  1525.19  1964.82  2714.43
          (Kelvin)           4440.79

 Zero-point correction=                           0.020720 (Hartree/Particle)
 Thermal correction to Energy=                    0.023752
 Thermal correction to Enthalpy=                  0.024696
 Thermal correction to Gibbs Free Energy=        -0.003314
 Sum of electronic and zero-point Energies=           -213.844364
 Sum of electronic and thermal Energies=              -213.841332
 Sum of electronic and thermal Enthalpies=            -213.840388
 Sum of electronic and thermal Free Energies=         -213.868399

                     E (Thermal)             CV                S
                      KCal/Mol        Cal/Mol-Kelvin    Cal/Mol-Kelvin
 Total                   14.904              7.658             58.953
 Electronic               0.000              0.000              0.000
 Translational            0.889              2.981             37.530
 Rotational               0.889              2.981             20.892
 Vibrational             13.127              1.696              0.530

 Optimization completed.
    -- Stationary point found.
 Normal termination of Gaussian 16 at Thu Jun 16 09:07:27 2022.
