 Gaussian 16, Revision B.01,

 ---------------------------------------
 # b3lyp/gen opt freq CPHF(Grid=OneStep)
 ---------------------------------------

 ---------------------
 formyl, B3LYP/pcseg-2
 ---------------------
 Symbolic Z-matrix:
 Charge =  0 Multiplicity = 2

 SCF Done:  E(UB3LYP) =  -113.903637110     A.U. after   14 cycles
 Optimization completed.
    -- Stationary point found.
 Normal termination of Gaussian 16 at Wed Sep 27 17:26:23 2023.

 ------------------------------------------------------------------
 #N Geom=AllCheck Guess=TCheck SCRF=Check GenChk UB3LYP/ChkBas Freq
 ------------------------------------------------------------------

 Structure from the checkpoint file:  "cho.chk"
 ---------------------
 formyl, B3LYP/pcseg-2
 ---------------------
 Charge =  0 Multiplicity = 2

 SCF Done:  E(UB3LYP) =  -113.903637110     A.U. after    1 cycles

  Exact polarizability:  15.090  -1.951  19.983   0.000   0.000  10.316
 Approx polarizability:  17.136  -2.095  31.587  -0.000  -0.000  13.318

                      1                      2                      3
                     A'                     A'                     A'
 Frequencies --   1106.2974              1933.3829              2651.3265
 Red. masses --      1.2525                11.6726                 1.0791
 Frc consts  --      0.9032                25.7072                 4.4691
 IR Inten    --     37.6537                98.8269                86.8053

 - Thermochemistry -
 -------------------
 Temperature   298.150 Kelvin.  Pressure   1.00000 Atm.
 Atom     1 has atomic number  6 and mass  12.00000

 Molecular mass:    29.00274 amu.
 Principal axes and moments of inertia in atomic units:
                           1         2         3
     Eigenvalues --     2.49914  40.01157  42.51071
           X           -0.11261   0.99364   0.00000
           Y            0.99364   0.11261   0.00000
           Z           -0.00000   0.00000   1.00000
 This molecule is an asymmetric top.
 Rotational symmetry number  1.
 Rotational temperatures (Kelvin)     34.65748     2.16472     2.03746
 Rotational constants (GHZ):         722.14470    45.10548    42.45380
 Zero-point vibrational energy      34039.8 (Joules/Mol)
                                    8.13570 (Kcal/Mol)
 Vibrational temperatures:   1591.72  2781.71  3814.67
          (Kelvin)

 Zero-point correction=                           0.012965 (Hartree/Particle)
 Thermal correction to Energy=                    0.015823
 Thermal correction to Enthalpy=                  0.016767
 Thermal correction to Gibbs Free Energy=        -0.008687
 Sum of electronic and zero-point Energies=           -113.890672
 Sum of electronic and thermal Energies=              -113.887814
 Sum of electronic and thermal Enthalpies=            -113.886870
 Sum of electronic and thermal Free Energies=         -113.912324

                     E (Thermal)             CV                S
                      KCal/Mol        Cal/Mol-Kelvin    Cal/Mol-Kelvin
 Total                    9.929              6.252             53.573
 Electronic               0.000              0.000              1.377
 Translational            0.889              2.981             36.028
 Rotational               0.889              2.981             16.104
 Vibrational              8.151              0.291              0.063

 Optimization completed.
    -- Stationary point found.
 Normal termination of Gaussian 16 at Wed Sep 27 17:26:41 2023.
 Gaussian 16:  ES64L-G16RevB.01 20-Dec-2017

 ---------------------------------
 # rohf/gen geom=check guess=check
 ---------------------------------

 ------------------------
 formyl, ROHF/cc-pVTZ-F12
 ------------------------
 Structure from the checkpoint file:  "cho.chk"
 Charge =  0 Multiplicity = 2

                         Standard orientation:
 ---------------------------------------------------------------------
 Center     Atomic      Atomic             Coordinates (Angstroms)
 Number     Number       Type             X           Y           Z
 ---------------------------------------------------------------------
      1          6           0        0.061692    0.582495    0.000000
      2          1           0       -0.863684    1.218697    0.000000
      3          8           0        0.061692   -0.589208    0.000000
 ---------------------------------------------------------------------

 SCF Done:  E(ROHF) =  -113.296337178     A.U. after   16 cycles

 The electronic state is 2-A'.
 Alpha  occ. eigenvalues --  -20.60965 -11.34599  -1.44492  -0.81613  -0.68072
 Alpha  occ. eigenvalues --   -0.57600  -0.57411  -0.09362
 Alpha virt. eigenvalues --    0.05513   0.05918   0.07333   0.07696   0.13244
 Alpha virt. eigenvalues --    0.16849   0.18773   0.19425   0.21725   0.28468
 Alpha virt. eigenvalues --    0.32953   0.39136   0.43585   0.46119   0.47101

 Mulliken charges and spin densities:
               1          2
     1  C    0.236948   0.746060
     2  H    0.133970   0.091546
     3  O   -0.370918   0.162395
 Sum of Mulliken charges =  -0.00000   1.00000

 Dipole moment (field-independent basis, Debye):
    X=             -0.9135    Y=              1.9918    Z=              0.0000  Tot=              2.1913
 Quadrupole moment (field-independent basis, Debye-Ang):
   XX=            -11.3128   YY=            -11.4687   ZZ=            -10.9364
   XY=             -1.0694   XZ=              0.0000   YZ=              0.0000

 Normal termination of Gaussian 16 at Wed Sep 27 17:26:45 2023.
