 Gaussian 16, Revision B.01,
 Gaussian 16:  ES64L-G16RevB.01 20-Dec-2017

 --------------------
 # b3lyp/gen opt freq
 --------------------

 ---------------------
 formyl, B3LYP/pcseg-2
 ---------------------
 Symbolic Z-matrix:
 Charge =  0 Multiplicity = 2

 SCF Done:  E(UB3LYP) =  -113.872980530     A.U. after   15 cycles
 SCF Done:  E(UB3LYP) =  -113.901988012     A.U. after   14 cycles
 SCF Done:  E(UB3LYP) =  -113.903477653     A.U. after   13 cycles
 SCF Done:  E(UB3LYP) =  -113.903616898     A.U. after   11 cycles
 SCF Done:  E(UB3LYP) =  -113.903636307     A.U. after   10 cycles
 SCF Done:  E(UB3LYP) =  -113.903637110     A.U. after    9 cycles
 Optimization completed.
    -- Stationary point found.
 Normal termination of Gaussian 16 at Wed Jun 15 11:00:56 2022.

 ------------------------------------------------------------------
 #N Geom=AllCheck Guess=TCheck SCRF=Check GenChk UB3LYP/ChkBas Freq
 ------------------------------------------------------------------

 Structure from the checkpoint file:  "/wrk/irikura/Gau-6042.chk"
 ---------------------
 formyl, B3LYP/pcseg-2
 ---------------------
 Charge =  0 Multiplicity = 2

                         Standard orientation:
 ---------------------------------------------------------------------
 Center     Atomic      Atomic             Coordinates (Angstroms)
 Number     Number       Type             X           Y           Z
 ---------------------------------------------------------------------
      1          6           0        0.061692    0.582495   -0.000000
      2          1           0       -0.863684    1.218697   -0.000000
      3          8           0        0.061692   -0.589208    0.000000
 ---------------------------------------------------------------------

 SCF Done:  E(UB3LYP) =  -113.903637110     A.U. after    1 cycles

 The electronic state is 2-A'.
 Alpha  occ. eigenvalues --  -19.19714 -10.28493  -1.12264  -0.62649  -0.51371
 Alpha  occ. eigenvalues --   -0.45213  -0.44745  -0.22755
 Alpha virt. eigenvalues --   -0.06158   0.02831   0.09399   0.15638   0.16515
 Alpha virt. eigenvalues --    0.24121   0.29677   0.31530   0.40196   0.41962
 Alpha virt. eigenvalues --    0.49704   0.67546   0.69331   0.80405   0.97515

  Beta  occ. eigenvalues --  -19.18810 -10.27494  -1.10672  -0.59907  -0.49097
  Beta  occ. eigenvalues --   -0.43990  -0.40017
  Beta virt. eigenvalues --   -0.08901  -0.04648   0.03476   0.09651   0.16943
  Beta virt. eigenvalues --    0.17570   0.25886   0.31297   0.31763   0.40385
  Beta virt. eigenvalues --    0.43140   0.51499   0.67972   0.71411   0.83255

 Mulliken charges and spin densities:
               1          2
     1  C    0.159453   0.596765
     2  H    0.063267   0.161886
     3  O   -0.222720   0.241349
 Sum of Mulliken charges =   0.00000   1.00000

 Dipole moment (field-independent basis, Debye):
    X=             -0.9904    Y=              1.3533    Z=             -0.0000  Tot=              1.6770
 Quadrupole moment (field-independent basis, Debye-Ang):
   XX=            -11.5651   YY=            -11.7624   ZZ=            -10.9836
   XY=             -1.1336   XZ=              0.0000   YZ=              0.0000

  Exact polarizability:  15.091  -1.951  19.983   0.000   0.000  10.316
 Approx polarizability:  17.136  -2.095  31.587   0.000  -0.000  13.318

                      1                      2                      3
                     A'                     A'                     A'
 Frequencies --   1106.2977              1933.3723              2651.3227
 Red. masses --      1.2525                11.6728                 1.0791
 Frc consts  --      0.9032                25.7073                 4.4691
 IR Inten    --     37.6556                98.8324                86.8223

 - Thermochemistry -
 -------------------
 Temperature   298.150 Kelvin.  Pressure   1.00000 Atm.
 Atom     1 has atomic number  6 and mass  12.00000

 Molecular mass:    29.00274 amu.
 Principal axes and moments of inertia in atomic units:
                           1         2         3
     Eigenvalues --     2.49914  40.01161  42.51074
           X           -0.11261   0.99364   0.00000
           Y            0.99364   0.11261   0.00000
           Z            0.00000   0.00000   1.00000
 This molecule is an asymmetric top.
 Rotational symmetry number  1.
 Rotational temperatures (Kelvin)     34.65751     2.16472     2.03746
 Rotational constants (GHZ):         722.14535    45.10544    42.45377
 Zero-point vibrational energy      34039.7 (Joules/Mol)
                                    8.13568 (Kcal/Mol)
 Vibrational temperatures:   1591.72  2781.69  3814.66
          (Kelvin)

 Zero-point correction=                           0.012965 (Hartree/Particle)
 Thermal correction to Energy=                    0.015823
 Thermal correction to Enthalpy=                  0.016767
 Thermal correction to Gibbs Free Energy=        -0.008687
 Sum of electronic and zero-point Energies=           -113.890672
 Sum of electronic and thermal Energies=              -113.887814
 Sum of electronic and thermal Enthalpies=            -113.886870
 Sum of electronic and thermal Free Energies=         -113.912324

                     E (Thermal)             CV                S
                      KCal/Mol        Cal/Mol-Kelvin    Cal/Mol-Kelvin
 Total                    9.929              6.252             53.573
 Electronic               0.000              0.000              1.377
 Translational            0.889              2.981             36.028
 Rotational               0.889              2.981             16.104
 Vibrational              8.151              0.291              0.063

 Optimization completed.
    -- Stationary point found.
 Normal termination of Gaussian 16 at Wed Jun 15 11:01:08 2022.
