 Gaussian 16, Revision B.01,

 ---------------------------------------
 # b3lyp/gen opt freq CPHF(Grid=OneStep)
 ---------------------------------------

 ----------------------
 glyoxal, B3LYP/pcseg-2
 ----------------------
 Symbolic Z-matrix:
 Charge =  0 Multiplicity = 1

 SCF Done:  E(RB3LYP) =  -227.918937230     A.U. after   11 cycles
 Optimization completed.
    -- Stationary point found.
 Normal termination of Gaussian 16 at Sat Sep 30 10:05:35 2023.

 ------------------------------------------------------------------
 #N Geom=AllCheck Guess=TCheck SCRF=Check GenChk RB3LYP/ChkBas Freq
 ------------------------------------------------------------------

 Structure from the checkpoint file:  "chocho.chk"
 ----------------------
 glyoxal, B3LYP/pcseg-2
 ----------------------
 Charge =  0 Multiplicity = 1

 SCF Done:  E(RB3LYP) =  -227.918937230     A.U. after    1 cycles

  Exact polarizability:  31.939   4.364  38.739   0.000   0.000  17.657
 Approx polarizability:  44.897  14.352  60.281  -0.000  -0.000  25.085

                      1                      2                      3
                     AU                     BU                     AG
 Frequencies --    127.5967               340.5006               552.1888
 Red. masses --      4.4954                 4.3288                 9.5462
 Frc consts  --      0.0431                 0.2957                 1.7150
 IR Inten    --     35.0749                52.1962                 0.0000

                      4                      5                      6
                     AU                     AG                     BG
 Frequencies --    813.9229              1061.9872              1078.9412
 Red. masses --      1.2312                 4.8560                 1.8851
 Frc consts  --      0.4806                 3.2267                 1.2930
 IR Inten    --      1.2132                 0.0000                 0.0000

                      7                      8                      9
                     BU                     AG                     BU
 Frequencies --   1340.4052              1381.2638              1796.5330
 Red. masses --      1.2001                 1.2053                11.4225
 Frc consts  --      1.2704                 1.3549                21.7212
 IR Inten    --      7.7616                 0.0000               210.1898

                     10                     11                     12
                     AG                     BU                     AG
 Frequencies --   1797.9444              2940.9251              2944.4873
 Red. masses --      9.1238                 1.0899                 1.0869
 Frc consts  --     17.3771                 5.5540                 5.5523
 IR Inten    --      0.0000               132.3165                 0.0000

 - Thermochemistry -
 -------------------
 Temperature   298.150 Kelvin.  Pressure   1.00000 Atm.
 Atom     1 has atomic number  6 and mass  12.00000

 Molecular mass:    58.00548 amu.
 Principal axes and moments of inertia in atomic units:
                           1         2         3
     Eigenvalues --    32.13834 376.40621 408.54454
           X            0.10835   0.99411   0.00000
           Y            0.99411  -0.10835   0.00000
           Z            0.00000  -0.00000   1.00000
 This molecule is an asymmetric top.
 Rotational symmetry number  2.
 Rotational temperatures (Kelvin)      2.69503     0.23011     0.21201
 Rotational constants (GHZ):          56.15540     4.79466     4.41749
 Zero-point vibrational energy      96758.1 (Joules/Mol)
                                   23.12575 (Kcal/Mol)
 Warning -- explicit consideration of   3 degrees of freedom as
           vibrations may cause significant error
 Vibrational temperatures:    183.58   489.90   794.48  1171.05  1527.96
          (Kelvin)           1552.36  1928.54  1987.33  2584.81  2586.84
                             4231.34  4236.46

 Zero-point correction=                           0.036853 (Hartree/Particle)
 Thermal correction to Energy=                    0.041080
 Thermal correction to Enthalpy=                  0.042024
 Thermal correction to Gibbs Free Energy=         0.011163
 Sum of electronic and zero-point Energies=           -227.882084
 Sum of electronic and thermal Energies=              -227.877857
 Sum of electronic and thermal Enthalpies=            -227.876913
 Sum of electronic and thermal Free Energies=         -227.907774

                     E (Thermal)             CV                S
                      KCal/Mol        Cal/Mol-Kelvin    Cal/Mol-Kelvin
 Total                   25.778             12.151             64.952
 Electronic               0.000              0.000              0.000
 Translational            0.889              2.981             38.095
 Rotational               0.889              2.981             21.740
 Vibrational             24.001              6.190              5.118
 Vibration     1          0.611              1.926              2.982
 Vibration     2          0.720              1.595              1.210
 Vibration     3          0.908              1.135              0.540

 Optimization completed.
    -- Stationary point found.
 Normal termination of Gaussian 16 at Sat Sep 30 10:06:30 2023.
 Gaussian 16:  ES64L-G16RevB.01 20-Dec-2017

 ---------------------------------
 # rohf/gen geom=check guess=check
 ---------------------------------

 -------------------------
 glyoxal, ROHF/cc-pVTZ-F12
 -------------------------
 Structure from the checkpoint file:  "chocho.chk"
 Charge =  0 Multiplicity = 1

                         Standard orientation:
 ---------------------------------------------------------------------
 Center     Atomic      Atomic             Coordinates (Angstroms)
 Number     Number       Type             X           Y           Z
 ---------------------------------------------------------------------
      1          6           0       -0.327251    0.688460    0.000000
      2          6           0        0.327251   -0.688460    0.000000
      3          1           0       -1.432341    0.678582    0.000000
      4          1           0        1.432341   -0.678582    0.000000
      5          8           0        0.327251    1.695567    0.000000
      6          8           0       -0.327251   -1.695567    0.000000
 ---------------------------------------------------------------------

 SCF Done:  E(ROHF) =  -226.693876619     A.U. after   11 cycles

 The electronic state is 1-AG.
 Alpha  occ. eigenvalues --  -20.60553 -20.60553 -11.36525 -11.36463  -1.44814
 Alpha  occ. eigenvalues --   -1.43171  -0.96621  -0.82725  -0.71132  -0.71024
 Alpha  occ. eigenvalues --   -0.66339  -0.59924  -0.53757  -0.52781  -0.44016
 Alpha virt. eigenvalues --    0.03417   0.04862   0.05327   0.06929   0.07579
 Alpha virt. eigenvalues --    0.08910   0.08972   0.09687   0.14961   0.15306
 Alpha virt. eigenvalues --    0.16460   0.18752   0.19967   0.21359   0.22472

 Mulliken charges and spin densities:
               1          2
     1  C    0.334913   0.000000
     2  C    0.334913   0.000000
     3  H    0.155306   0.000000
     4  H    0.155306   0.000000
     5  O   -0.490219   0.000000
     6  O   -0.490219   0.000000
 Sum of Mulliken charges =  -0.00000   0.00000

 Dipole moment (field-independent basis, Debye):
    X=              0.0000    Y=              0.0000    Z=              0.0000  Tot=              0.0000
 Quadrupole moment (field-independent basis, Debye-Ang):
   XX=            -20.7256   YY=            -32.0711   ZZ=            -21.4333
   XY=             -3.8810   XZ=              0.0000   YZ=              0.0000

 Normal termination of Gaussian 16 at Sat Sep 30 10:06:57 2023.
