 Gaussian 16, Revision B.01,
 Gaussian 16:  ES64L-G16RevB.01 20-Dec-2017

 --------------------
 # b3lyp/gen opt freq
 --------------------

 ----------------------
 glyoxal, B3LYP/pcseg-2
 ----------------------
 Symbolic Z-matrix:
 Charge =  0 Multiplicity = 1

 SCF Done:  E(RB3LYP) =  -227.918922951     A.U. after   11 cycles
 SCF Done:  E(RB3LYP) =  -227.918937229     A.U. after    7 cycles
 Optimization completed.
    -- Stationary point found.
 Normal termination of Gaussian 16 at Fri Jun 17 17:17:02 2022.

 ------------------------------------------------------------------
 #N Geom=AllCheck Guess=TCheck SCRF=Check GenChk RB3LYP/ChkBas Freq
 ------------------------------------------------------------------

 Structure from the checkpoint file:  "/wrk/irikura/Gau-30175.chk"
 ----------------------
 glyoxal, B3LYP/pcseg-2
 ----------------------
 Charge =  0 Multiplicity = 1

                         Standard orientation:
 ---------------------------------------------------------------------
 Center     Atomic      Atomic             Coordinates (Angstroms)
 Number     Number       Type             X           Y           Z
 ---------------------------------------------------------------------
      1          6           0       -0.327251    0.688460    0.000000
      2          6           0        0.327251   -0.688460    0.000000
      3          1           0       -1.432341    0.678582    0.000000
      4          1           0        1.432341   -0.678582    0.000000
      5          8           0        0.327251    1.695567    0.000000
      6          8           0       -0.327251   -1.695567    0.000000
 ---------------------------------------------------------------------

 SCF Done:  E(RB3LYP) =  -227.918937229     A.U. after    1 cycles

 The electronic state is 1-AG.
 Alpha  occ. eigenvalues --  -19.17290 -19.17290 -10.29769 -10.29746  -1.10518
 Alpha  occ. eigenvalues --   -1.09189  -0.72076  -0.61351  -0.51597  -0.50575
 Alpha  occ. eigenvalues --   -0.47317  -0.46499  -0.41380  -0.34512  -0.28320
 Alpha virt. eigenvalues --   -0.12774  -0.00393   0.02863   0.03744   0.07955
 Alpha virt. eigenvalues --    0.12067   0.14006   0.18250   0.19550   0.21880
 Alpha virt. eigenvalues --    0.25145   0.26445   0.29752   0.32253   0.32512

 Mulliken charges:
               1
     1  C    0.291266
     2  C    0.291266
     3  H    0.033793
     4  H    0.033793
     5  O   -0.325059
     6  O   -0.325059
 Sum of Mulliken charges =   0.00000

 Dipole moment (field-independent basis, Debye):
    X=             -0.0000    Y=              0.0000    Z=              0.0000  Tot=              0.0000
 Quadrupole moment (field-independent basis, Debye-Ang):
   XX=            -21.3772   YY=            -31.1034   ZZ=            -21.3809
   XY=             -3.4581   XZ=              0.0000   YZ=              0.0000

  Exact polarizability:  31.938   4.364  38.739   0.000   0.000  17.657
 Approx polarizability:  44.897  14.352  60.281  -0.000  -0.000  25.085

                      1                      2                      3
                     AU                     BU                     AG
 Frequencies --    127.6017               340.4958               552.1877
 Red. masses --      4.4954                 4.3288                 9.5461
 Frc consts  --      0.0431                 0.2957                 1.7149
 IR Inten    --     35.0745                52.1970                 0.0000

                      4                      5                      6
                     AU                     AG                     BG
 Frequencies --    813.9276              1061.9859              1078.9406
 Red. masses --      1.2312                 4.8559                 1.8851
 Frc consts  --      0.4806                 3.2267                 1.2930
 IR Inten    --      1.2133                 0.0000                 0.0000

                      7                      8                      9
                     BU                     AG                     BU
 Frequencies --   1340.4003              1381.2615              1796.5296
 Red. masses --      1.2001                 1.2053                11.4226
 Frc consts  --      1.2704                 1.3549                21.7212
 IR Inten    --      7.7604                 0.0000               210.1922

                     10                     11                     12
                     AG                     BU                     AG
 Frequencies --   1797.9375              2940.9225              2944.4846
 Red. masses --      9.1239                 1.0899                 1.0869
 Frc consts  --     17.3773                 5.5540                 5.5523
 IR Inten    --      0.0000               132.3122                 0.0000

 - Thermochemistry -
 -------------------
 Temperature   298.150 Kelvin.  Pressure   1.00000 Atm.
 Atom     1 has atomic number  6 and mass  12.00000

 Molecular mass:    58.00548 amu.
 Principal axes and moments of inertia in atomic units:
                           1         2         3
     Eigenvalues --    32.13838 376.40611 408.54449
           X            0.10835   0.99411   0.00000
           Y            0.99411  -0.10835   0.00000
           Z            0.00000  -0.00000   1.00000
 This molecule is an asymmetric top.
 Rotational symmetry number  2.
 Rotational temperatures (Kelvin)      2.69503     0.23011     0.21201
 Rotational constants (GHZ):          56.15533     4.79466     4.41749
 Zero-point vibrational energy      96758.0 (Joules/Mol)
                                   23.12572 (Kcal/Mol)
 Warning -- explicit consideration of   3 degrees of freedom as
           vibrations may cause significant error
 Vibrational temperatures:    183.59   489.90   794.47  1171.06  1527.96
          (Kelvin)           1552.35  1928.54  1987.33  2584.81  2586.83
                             4231.33  4236.46

 Zero-point correction=                           0.036853 (Hartree/Particle)
 Thermal correction to Energy=                    0.041080
 Thermal correction to Enthalpy=                  0.042024
 Thermal correction to Gibbs Free Energy=         0.011163
 Sum of electronic and zero-point Energies=           -227.882084
 Sum of electronic and thermal Energies=              -227.877857
 Sum of electronic and thermal Enthalpies=            -227.876913
 Sum of electronic and thermal Free Energies=         -227.907774

                     E (Thermal)             CV                S
                      KCal/Mol        Cal/Mol-Kelvin    Cal/Mol-Kelvin
 Total                   25.778             12.151             64.952
 Electronic               0.000              0.000              0.000
 Translational            0.889              2.981             38.095
 Rotational               0.889              2.981             21.740
 Vibrational             24.001              6.190              5.117
 Vibration     1          0.611              1.926              2.982
 Vibration     2          0.720              1.595              1.210
 Vibration     3          0.908              1.135              0.540

 Optimization completed.
    -- Stationary point found.
 Normal termination of Gaussian 16 at Fri Jun 17 17:17:20 2022.
