 Gaussian 16, Revision B.01,
 Gaussian 16:  ES64L-G16RevB.01 20-Dec-2017

 --------------------
 # b3lyp/gen opt freq
 --------------------

 ------------------------
 formamide, B3LYP/pcseg-2
 ------------------------
 Symbolic Z-matrix:
 Charge =  0 Multiplicity = 1

 SCF Done:  E(RB3LYP) =  -169.973796516     A.U. after   13 cycles
 SCF Done:  E(RB3LYP) =  -169.973843171     A.U. after    8 cycles
 SCF Done:  E(RB3LYP) =  -169.973845018     A.U. after    7 cycles
 Optimization completed.
    -- Stationary point found.
 Normal termination of Gaussian 16 at Wed Jun 15 11:01:23 2022.

 ------------------------------------------------------------------
 #N Geom=AllCheck Guess=TCheck SCRF=Check GenChk RB3LYP/ChkBas Freq
 ------------------------------------------------------------------

 Structure from the checkpoint file:  "/wrk/irikura/Gau-6372.chk"
 ------------------------
 formamide, B3LYP/pcseg-2
 ------------------------
 Charge =  0 Multiplicity = 1

                         Standard orientation:
 ---------------------------------------------------------------------
 Center     Atomic      Atomic             Coordinates (Angstroms)
 Number     Number       Type             X           Y           Z
 ---------------------------------------------------------------------
      1          6           0        0.000000    0.418397    0.000000
      2          8           0        1.195446    0.236336    0.000000
      3          7           0       -0.936188   -0.564267   -0.000000
      4          1           0       -0.449598    1.426623    0.000000
      5          1           0       -0.643868   -1.527131   -0.000000
      6          1           0       -1.916782   -0.350689   -0.000000
 ---------------------------------------------------------------------

 SCF Done:  E(RB3LYP) =  -169.973845018     A.U. after    1 cycles

 The electronic state is 1-A'.
 Alpha  occ. eigenvalues --  -19.10099 -14.35219 -10.28217  -1.04866  -0.92289
 Alpha  occ. eigenvalues --   -0.63886  -0.57004  -0.49392  -0.42748  -0.41966
 Alpha  occ. eigenvalues --   -0.29175  -0.27284
 Alpha virt. eigenvalues --    0.00130   0.00563   0.02995   0.06915   0.12502
 Alpha virt. eigenvalues --    0.16445   0.16532   0.20652   0.28418   0.28665
 Alpha virt. eigenvalues --    0.29981   0.30130   0.33655   0.38205   0.42874

 Mulliken charges:
               1
     1  C    0.407431
     2  O   -0.437238
     3  N   -0.273544
     4  H   -0.018804
     5  H    0.167814
     6  H    0.154341
 Sum of Mulliken charges =   0.00000

 Dipole moment (field-independent basis, Debye):
    X=             -3.9455    Y=             -0.6743    Z=             -0.0000  Tot=              4.0027
 Quadrupole moment (field-independent basis, Debye-Ang):
   XX=            -18.7538   YY=            -15.0375   ZZ=            -19.0323
   XY=             -0.0918   XZ=             -0.0000   YZ=             -0.0000

  Exact polarizability:  32.773   2.032  25.879  -0.000  -0.000  16.842
 Approx polarizability:  50.404   2.742  33.228   0.000  -0.000  22.321

                      1                      2                      3
                     A"                     A'                     A"
 Frequencies --    253.1437               568.7373               639.9367
 Red. masses --      1.2234                 2.4540                 1.2060
 Frc consts  --      0.0462                 0.4677                 0.2910
 IR Inten    --    214.0255                10.8109                16.5056

                      4                      5                      6
                     A"                     A'                     A'
 Frequencies --   1042.8539              1054.3734              1265.4672
 Red. masses --      1.5497                 1.7810                 2.8390
 Frc consts  --      0.9930                 1.1666                 2.6786
 IR Inten    --      1.9194                 5.1367               111.9539

                      7                      8                      9
                     A'                     A'                     A'
 Frequencies --   1421.9610              1619.0593              1791.5812
 Red. masses --      1.2053                 1.2258                 7.3467
 Frc consts  --      1.4359                 1.8932                13.8936
 IR Inten    --      5.8463                62.7339               433.4261

                     10                     11                     12
                     A'                     A'                     A'
 Frequencies --   2944.5683              3579.2003              3716.9064
 Red. masses --      1.0847                 1.0453                 1.1049
 Frc consts  --      5.5410                 7.8894                 8.9936
 IR Inten    --     99.9969                35.0912                42.7648

 - Thermochemistry -
 -------------------
 Temperature   298.150 Kelvin.  Pressure   1.00000 Atm.
 Atom     1 has atomic number  6 and mass  12.00000

 Molecular mass:    45.02146 amu.
 Principal axes and moments of inertia in atomic units:
                           1         2         3
     Eigenvalues --    24.40607 158.54769 182.95375
           X            0.92908  -0.36989   0.00000
           Y            0.36989   0.92908   0.00000
           Z           -0.00000   0.00000   1.00000
 This molecule is an asymmetric top.
 Rotational symmetry number  1.
 Rotational temperatures (Kelvin)      3.54887     0.54630     0.47342
 Rotational constants (GHZ):          73.94642    11.38296     9.86447
 Zero-point vibrational energy     119015.2 (Joules/Mol)
                                   28.44532 (Kcal/Mol)
 Warning -- explicit consideration of   2 degrees of freedom as
           vibrations may cause significant error
 Vibrational temperatures:    364.22   818.29   920.73  1500.43  1517.01
          (Kelvin)           1820.73  2045.88  2329.47  2577.69  4236.58
                             5149.67  5347.80

 Zero-point correction=                           0.045330 (Hartree/Particle)
 Thermal correction to Energy=                    0.049048
 Thermal correction to Enthalpy=                  0.049992
 Thermal correction to Gibbs Free Energy=         0.020847
 Sum of electronic and zero-point Energies=           -169.928515
 Sum of electronic and thermal Energies=              -169.924797
 Sum of electronic and thermal Enthalpies=            -169.923853
 Sum of electronic and thermal Free Energies=         -169.952998

                     E (Thermal)             CV                S
                      KCal/Mol        Cal/Mol-Kelvin    Cal/Mol-Kelvin
 Total                   30.778             10.760             61.339
 Electronic               0.000              0.000              0.000
 Translational            0.889              2.981             37.339
 Rotational               0.889              2.981             21.187
 Vibrational             29.000              4.798              2.813
 Vibration     1          0.664              1.757              1.709
 Vibration     2          0.925              1.099              0.507

 Optimization completed.
    -- Stationary point found.
 Normal termination of Gaussian 16 at Wed Jun 15 11:01:43 2022.
