 Gaussian 16, Revision B.01,

 ---------------------------------------
 # b3lyp/gen opt freq CPHF(Grid=OneStep)
 ---------------------------------------

 ------------------------
 formamide, B3LYP/pcseg-2
 ------------------------
 Symbolic Z-matrix:
 Charge =  0 Multiplicity = 1

 SCF Done:  E(RB3LYP) =  -169.973845018     A.U. after   13 cycles
 Optimization completed.
    -- Stationary point found.
 Normal termination of Gaussian 16 at Fri Sep 29 01:17:25 2023.

 ------------------------------------------------------------------
 #N Geom=AllCheck Guess=TCheck SCRF=Check GenChk RB3LYP/ChkBas Freq
 ------------------------------------------------------------------

 Structure from the checkpoint file:  "chonh2.chk"
 ------------------------
 formamide, B3LYP/pcseg-2
 ------------------------
 Charge =  0 Multiplicity = 1

 SCF Done:  E(RB3LYP) =  -169.973845018     A.U. after    1 cycles

  Exact polarizability:  32.773   2.032  25.879   0.000  -0.000  16.842
 Approx polarizability:  50.404   2.742  33.228   0.000  -0.000  22.321

                      1                      2                      3
                     A"                     A'                     A"
 Frequencies --    253.1488               568.7402               639.9315
 Red. masses --      1.2234                 2.4540                 1.2060
 Frc consts  --      0.0462                 0.4677                 0.2910
 IR Inten    --    214.0282                10.8111                16.5047

                      4                      5                      6
                     A"                     A'                     A'
 Frequencies --   1042.8554              1054.3735              1265.4700
 Red. masses --      1.5497                 1.7810                 2.8390
 Frc consts  --      0.9930                 1.1666                 2.6786
 IR Inten    --      1.9189                 5.1371               111.9546

                      7                      8                      9
                     A'                     A'                     A'
 Frequencies --   1421.9624              1619.0600              1791.5850
 Red. masses --      1.2053                 1.2258                 7.3465
 Frc consts  --      1.4359                 1.8932                13.8933
 IR Inten    --      5.8468                62.7333               433.4243

                     10                     11                     12
                     A'                     A'                     A'
 Frequencies --   2944.5658              3579.2006              3716.9032
 Red. masses --      1.0847                 1.0453                 1.1049
 Frc consts  --      5.5410                 7.8894                 8.9936
 IR Inten    --     99.9950                35.0911                42.7636

 - Thermochemistry -
 -------------------
 Temperature   298.150 Kelvin.  Pressure   1.00000 Atm.
 Atom     1 has atomic number  6 and mass  12.00000

 Molecular mass:    45.02146 amu.
 Principal axes and moments of inertia in atomic units:
                           1         2         3
     Eigenvalues --    24.40606 158.54763 182.95370
           X            0.92908  -0.36989   0.00000
           Y            0.36989   0.92908   0.00000
           Z            0.00000  -0.00000   1.00000
 This molecule is an asymmetric top.
 Rotational symmetry number  1.
 Rotational temperatures (Kelvin)      3.54887     0.54630     0.47342
 Rotational constants (GHZ):          73.94643    11.38296     9.86447
 Zero-point vibrational energy     119015.3 (Joules/Mol)
                                   28.44533 (Kcal/Mol)
 Warning -- explicit consideration of   2 degrees of freedom as
           vibrations may cause significant error
 Vibrational temperatures:    364.22   818.29   920.72  1500.44  1517.01
          (Kelvin)           1820.73  2045.89  2329.47  2577.69  4236.57
                             5149.67  5347.79

 Zero-point correction=                           0.045331 (Hartree/Particle)
 Thermal correction to Energy=                    0.049048
 Thermal correction to Enthalpy=                  0.049992
 Thermal correction to Gibbs Free Energy=         0.020847
 Sum of electronic and zero-point Energies=           -169.928515
 Sum of electronic and thermal Energies=              -169.924797
 Sum of electronic and thermal Enthalpies=            -169.923853
 Sum of electronic and thermal Free Energies=         -169.952998

                     E (Thermal)             CV                S
                      KCal/Mol        Cal/Mol-Kelvin    Cal/Mol-Kelvin
 Total                   30.778             10.760             61.339
 Electronic               0.000              0.000              0.000
 Translational            0.889              2.981             37.339
 Rotational               0.889              2.981             21.187
 Vibrational             29.000              4.798              2.813
 Vibration     1          0.664              1.757              1.709
 Vibration     2          0.925              1.099              0.507

 Optimization completed.
    -- Stationary point found.
 Normal termination of Gaussian 16 at Fri Sep 29 01:18:31 2023.
 Gaussian 16:  ES64L-G16RevB.01 20-Dec-2017

 ---------------------------------
 # rohf/gen geom=check guess=check
 ---------------------------------

 ---------------------------
 formamide, ROHF/cc-pVTZ-F12
 ---------------------------
 Structure from the checkpoint file:  "chonh2.chk"
 Charge =  0 Multiplicity = 1

                         Standard orientation:
 ---------------------------------------------------------------------
 Center     Atomic      Atomic             Coordinates (Angstroms)
 Number     Number       Type             X           Y           Z
 ---------------------------------------------------------------------
      1          6           0        0.000000    0.418397   -0.000000
      2          8           0        1.195446    0.236335   -0.000000
      3          7           0       -0.936188   -0.564267    0.000000
      4          1           0       -0.449598    1.426623   -0.000000
      5          1           0       -0.643869   -1.527131    0.000000
      6          1           0       -1.916782   -0.350688    0.000000
 ---------------------------------------------------------------------

 SCF Done:  E(ROHF) =  -169.015080590     A.U. after   12 cycles

 The electronic state is 1-A'.
 Alpha  occ. eigenvalues --  -20.52819 -15.59479 -11.35584  -1.38875  -1.22180
 Alpha  occ. eigenvalues --   -0.85301  -0.75308  -0.67666  -0.61148  -0.57421
 Alpha  occ. eigenvalues --   -0.43813  -0.42396
 Alpha virt. eigenvalues --    0.04260   0.05776   0.07256   0.08205   0.10719
 Alpha virt. eigenvalues --    0.11365   0.13306   0.17198   0.18017   0.19994
 Alpha virt. eigenvalues --    0.21335   0.22045   0.22210   0.25310   0.27353

 Mulliken charges and spin densities:
               1          2
     1  C    0.569588   0.000000
     2  O   -0.610970   0.000000
     3  N   -0.676689   0.000000
     4  H    0.100590   0.000000
     5  H    0.322620   0.000000
     6  H    0.294861   0.000000
 Sum of Mulliken charges =  -0.00000   0.00000

 Dipole moment (field-independent basis, Debye):
    X=             -4.2264    Y=             -0.4748    Z=              0.0000  Tot=              4.2530
 Quadrupole moment (field-independent basis, Debye-Ang):
   XX=            -18.9478   YY=            -14.5594   ZZ=            -18.9805
   XY=             -0.3451   XZ=              0.0000   YZ=              0.0000

 Normal termination of Gaussian 16 at Fri Sep 29 01:18:47 2023.
