 Gaussian 16, Revision B.01,
 Gaussian 16:  ES64L-G16RevB.01 20-Dec-2017

 --------------------
 # b3lyp/gen opt freq
 --------------------

 ---------------------------
 Cl2 geom opt, B3LYP/pcseg-2
 ---------------------------
 Symbolic Z-matrix:
 Charge =  0 Multiplicity = 1

 SCF Done:  E(RB3LYP) =  -920.380651218     A.U. after   10 cycles
 SCF Done:  E(RB3LYP) =  -920.419761490     A.U. after   11 cycles
 SCF Done:  E(RB3LYP) =  -920.420137927     A.U. after   12 cycles
 SCF Done:  E(RB3LYP) =  -920.440341856     A.U. after    9 cycles
 SCF Done:  E(RB3LYP) =  -920.440342102     A.U. after    5 cycles
 Optimization completed.
    -- Stationary point found.
 Normal termination of Gaussian 16 at Thu Feb 24 14:33:44 2022.

 ------------------------------------------------------------------
 #N Geom=AllCheck Guess=TCheck SCRF=Check GenChk RB3LYP/ChkBas Freq
 ------------------------------------------------------------------

 Structure from the checkpoint file:  "/wrk/irikura/Gau-17296.chk"
 ---------------------------
 Cl2 geom opt, B3LYP/pcseg-2
 ---------------------------
 Charge =  0 Multiplicity = 1

                         Standard orientation:
 ---------------------------------------------------------------------
 Center     Atomic      Atomic             Coordinates (Angstroms)
 Number     Number       Type             X           Y           Z
 ---------------------------------------------------------------------
      1         17           0        0.000000    0.000000    1.009437
      2         17           0        0.000000    0.000000   -1.009437
 ---------------------------------------------------------------------

 SCF Done:  E(RB3LYP) =  -920.440342102     A.U. after    1 cycles

 The electronic state is 1-SGG.
 Alpha  occ. eigenvalues -- -101.56875-101.56875  -9.51053  -9.51048  -7.27566
 Alpha  occ. eigenvalues --   -7.27552  -7.26173  -7.26173  -7.26172  -7.26172
 Alpha  occ. eigenvalues --   -0.93431  -0.77587  -0.47502  -0.41166  -0.41166
 Alpha  occ. eigenvalues --   -0.31367  -0.31367
 Alpha virt. eigenvalues --   -0.13361   0.22918   0.25228   0.28735   0.28735
 Alpha virt. eigenvalues --    0.32961   0.32961   0.38862   0.38862   0.45930
 Alpha virt. eigenvalues --    0.50389   0.50389   0.56097   0.56097   0.61307

 Mulliken charges:
               1
     1  Cl   0.000000
     2  Cl   0.000000
 Sum of Mulliken charges =   0.00000

 Dipole moment (field-independent basis, Debye):
    X=             -0.0000    Y=              0.0000    Z=              0.0000  Tot=              0.0000
 Quadrupole moment (field-independent basis, Debye-Ang):
   XX=            -25.5239   YY=            -25.5239   ZZ=            -22.3494
   XY=             -0.0000   XZ=              0.0000   YZ=              0.0000

  Exact polarizability:  12.259  -0.000  12.259  -0.000  -0.000  34.932
 Approx polarizability:  18.184  -0.000  18.184  -0.000   0.000  61.252

                      1
                     SGG
 Frequencies --    538.3643
 Red. masses --     34.9689
 Frc consts  --      5.9715
 IR Inten    --      0.0000

 - Thermochemistry -
 -------------------
 Temperature   298.150 Kelvin.  Pressure   1.00000 Atm.
 Atom     1 has atomic number 17 and mass  34.96885

 Molecular mass:    69.93771 amu.
 Principal axes and moments of inertia in atomic units:
                           1         2         3
     Eigenvalues --     0.00000 254.48819 254.48819
           X           -0.00000   1.00000  -0.00000
           Y            0.00000   0.00000   1.00000
           Z            1.00000   0.00000  -0.00000
 This molecule is a prolate symmetric top.
 Rotational symmetry number  2.
 Rotational temperature (Kelvin)      0.34035
 Rotational constant (GHZ):           7.091650
 Zero-point vibrational energy       3220.1 (Joules/Mol)
                                    0.76963 (Kcal/Mol)
 Warning -- explicit consideration of   1 degrees of freedom as
           vibrations may cause significant error
 Vibrational temperatures:    774.59
          (Kelvin)

 Zero-point correction=                           0.001226 (Hartree/Particle)
 Thermal correction to Energy=                    0.003784
 Thermal correction to Enthalpy=                  0.004728
 Thermal correction to Gibbs Free Energy=        -0.020594
 Sum of electronic and zero-point Energies=           -920.439116
 Sum of electronic and thermal Energies=              -920.436558
 Sum of electronic and thermal Enthalpies=            -920.435614
 Sum of electronic and thermal Free Energies=         -920.460936

                     E (Thermal)             CV                S
                      KCal/Mol        Cal/Mol-Kelvin    Cal/Mol-Kelvin
 Total                    2.375              6.133             53.295
 Electronic               0.000              0.000              0.000
 Translational            0.889              2.981             38.652
 Rotational               0.592              1.987             14.074
 Vibrational              0.893              1.165              0.569
 Vibration     1          0.893              1.165              0.569

 Optimization completed.
    -- Stationary point found.
 Normal termination of Gaussian 16 at Thu Feb 24 14:33:50 2022.
