 Gaussian 16, Revision B.01,
 Gaussian 16:  ES64L-G16RevB.01 20-Dec-2017

 --------------------
 # b3lyp/gen opt freq
 --------------------

 --------------------------------
 oxygen dichloride, B3LYP/pcseg-2
 --------------------------------
 Symbolic Z-matrix:
 Charge =  0 Multiplicity = 1

 SCF Done:  E(RB3LYP) =  -995.597967563     A.U. after   12 cycles
 SCF Done:  E(RB3LYP) =  -995.600914580     A.U. after   12 cycles
 SCF Done:  E(RB3LYP) =  -995.601174048     A.U. after   11 cycles
 SCF Done:  E(RB3LYP) =  -995.601174638     A.U. after    7 cycles
 Optimization completed.
    -- Stationary point found.
 Normal termination of Gaussian 16 at Thu Jun 16 10:41:40 2022.

 ------------------------------------------------------------------
 #N Geom=AllCheck Guess=TCheck SCRF=Check GenChk RB3LYP/ChkBas Freq
 ------------------------------------------------------------------

 Structure from the checkpoint file:  "/wrk/irikura/Gau-7639.chk"
 --------------------------------
 oxygen dichloride, B3LYP/pcseg-2
 --------------------------------
 Charge =  0 Multiplicity = 1

                         Standard orientation:
 ---------------------------------------------------------------------
 Center     Atomic      Atomic             Coordinates (Angstroms)
 Number     Number       Type             X           Y           Z
 ---------------------------------------------------------------------
      1          8           0        0.000000    0.000000    0.766989
      2         17           0       -0.000000    1.426421   -0.180468
      3         17           0       -0.000000   -1.426421   -0.180468
 ---------------------------------------------------------------------

 SCF Done:  E(RB3LYP) =  -995.601174638     A.U. after    1 cycles

 The electronic state is 1-A1.
 Alpha  occ. eigenvalues -- -101.57831-101.57831 -19.26279  -9.51914  -9.51913
 Alpha  occ. eigenvalues --   -7.28512  -7.28512  -7.27035  -7.27035  -7.26964
 Alpha  occ. eigenvalues --   -7.26964  -1.10839  -0.87392  -0.77417  -0.53487
 Alpha  occ. eigenvalues --   -0.48809  -0.46809  -0.35803  -0.35154  -0.34357
 Alpha  occ. eigenvalues --   -0.29738
 Alpha virt. eigenvalues --   -0.14151  -0.07000   0.24613   0.26049   0.27541
 Alpha virt. eigenvalues --    0.29910   0.31159   0.32001   0.32176   0.32272
 Alpha virt. eigenvalues --    0.34233   0.38276   0.49086   0.50036   0.51384

 Mulliken charges:
               1
     1  O   -0.222550
     2  Cl   0.111275
     3  Cl   0.111275
 Sum of Mulliken charges =  -0.00000

 Dipole moment (field-independent basis, Debye):
    X=             -0.0000    Y=              0.0000    Z=             -0.7179  Tot=              0.7179
 Quadrupole moment (field-independent basis, Debye-Ang):
   XX=            -30.9898   YY=            -27.1037   ZZ=            -30.3901
   XY=              0.0000   XZ=             -0.0000   YZ=             -0.0000

  Exact polarizability:  14.760   0.000  47.141   0.000   0.000  21.156
 Approx polarizability:  21.693   0.000  73.703   0.000   0.000  37.535

                      1                      2                      3
                     A1                     A1                     B2
 Frequencies --    290.2102               654.7063               660.8563
 Red. masses --     29.6763                19.5673                18.4807
 Frc consts  --      1.4726                 4.9417                 4.7554
 IR Inten    --      0.0383                 1.1778                12.9092

 - Thermochemistry -
 -------------------
 Temperature   298.150 Kelvin.  Pressure   1.00000 Atm.
 Atom     1 has atomic number  8 and mass  15.99491

 Molecular mass:    85.93262 amu.
 Principal axes and moments of inertia in atomic units:
                           1         2         3
     Eigenvalues --    41.73032 508.16460 549.89492
           X           -0.00000   0.00000   1.00000
           Y            1.00000  -0.00000  -0.00000
           Z            0.00000   1.00000  -0.00000
 This molecule is an asymmetric top.
 Rotational symmetry number  2.
 Rotational temperatures (Kelvin)      2.07556     0.17044     0.15751
 Rotational constants (GHZ):          43.24772     3.55149     3.28197
 Zero-point vibrational energy       9604.7 (Joules/Mol)
                                    2.29557 (Kcal/Mol)
 Warning -- explicit consideration of   1 degrees of freedom as
           vibrations may cause significant error
 Vibrational temperatures:    417.55   941.98   950.82
          (Kelvin)

 Zero-point correction=                           0.003658 (Hartree/Particle)
 Thermal correction to Energy=                    0.007185
 Thermal correction to Enthalpy=                  0.008129
 Thermal correction to Gibbs Free Energy=        -0.022304
 Sum of electronic and zero-point Energies=           -995.597516
 Sum of electronic and thermal Energies=              -995.593990
 Sum of electronic and thermal Enthalpies=            -995.593045
 Sum of electronic and thermal Free Energies=         -995.623479

                     E (Thermal)             CV                S
                      KCal/Mol        Cal/Mol-Kelvin    Cal/Mol-Kelvin
 Total                    4.509              9.478             64.053
 Electronic               0.000              0.000              0.000
 Translational            0.889              2.981             39.266
 Rotational               0.889              2.981             22.593
 Vibrational              2.731              3.516              2.193
 Vibration     1          0.686              1.692              1.473

 Optimization completed.
    -- Stationary point found.
 Normal termination of Gaussian 16 at Thu Jun 16 10:41:47 2022.
