 Gaussian 16, Revision B.01,

 ---------------------------------------
 # b3lyp/gen opt freq CPHF(Grid=OneStep)
 ---------------------------------------

 --------------------------------
 oxygen dichloride, B3LYP/pcseg-2
 --------------------------------
 Symbolic Z-matrix:
 Charge =  0 Multiplicity = 1

 SCF Done:  E(RB3LYP) =  -995.601174637     A.U. after   13 cycles
 Optimization completed.
    -- Stationary point found.
 Normal termination of Gaussian 16 at Sat Sep 30 19:23:32 2023.

 ------------------------------------------------------------------
 #N Geom=AllCheck Guess=TCheck SCRF=Check GenChk RB3LYP/ChkBas Freq
 ------------------------------------------------------------------

 Structure from the checkpoint file:  "cl2o.chk"
 --------------------------------
 oxygen dichloride, B3LYP/pcseg-2
 --------------------------------
 Charge =  0 Multiplicity = 1

 SCF Done:  E(RB3LYP) =  -995.601174637     A.U. after    1 cycles

  Exact polarizability:  14.760   0.000  47.141   0.000   0.000  21.157
 Approx polarizability:  21.693   0.000  73.703   0.000  -0.000  37.535

                      1                      2                      3
                     A1                     A1                     B2
 Frequencies --    290.2292               654.7153               660.8634
 Red. masses --     29.6770                19.5670                18.4807
 Frc consts  --      1.4728                 4.9417                 4.7555
 IR Inten    --      0.0383                 1.1794                12.9080

 - Thermochemistry -
 -------------------
 Temperature   298.150 Kelvin.  Pressure   1.00000 Atm.
 Atom     1 has atomic number  8 and mass  15.99491

 Molecular mass:    85.93262 amu.
 Principal axes and moments of inertia in atomic units:
                           1         2         3
     Eigenvalues --    41.73035 508.16478 549.89513
           X            0.00000   0.00000   1.00000
           Y            1.00000   0.00000  -0.00000
           Z            0.00000   1.00000   0.00000
 This molecule is an asymmetric top.
 Rotational symmetry number  2.
 Rotational temperatures (Kelvin)      2.07556     0.17044     0.15751
 Rotational constants (GHZ):          43.24769     3.55149     3.28197
 Zero-point vibrational energy       9604.9 (Joules/Mol)
                                    2.29562 (Kcal/Mol)
 Warning -- explicit consideration of   1 degrees of freedom as
           vibrations may cause significant error
 Vibrational temperatures:    417.58   941.99   950.84
          (Kelvin)

 Zero-point correction=                           0.003658 (Hartree/Particle)
 Thermal correction to Energy=                    0.007185
 Thermal correction to Enthalpy=                  0.008129
 Thermal correction to Gibbs Free Energy=        -0.022304
 Sum of electronic and zero-point Energies=           -995.597516
 Sum of electronic and thermal Energies=              -995.593990
 Sum of electronic and thermal Enthalpies=            -995.593045
 Sum of electronic and thermal Free Energies=         -995.623479

                     E (Thermal)             CV                S
                      KCal/Mol        Cal/Mol-Kelvin    Cal/Mol-Kelvin
 Total                    4.509              9.478             64.052
 Electronic               0.000              0.000              0.000
 Translational            0.889              2.981             39.266
 Rotational               0.889              2.981             22.593
 Vibrational              2.731              3.516              2.193
 Vibration     1          0.686              1.692              1.473

 Optimization completed.
    -- Stationary point found.
 Normal termination of Gaussian 16 at Sat Sep 30 19:23:48 2023.
 Gaussian 16:  ES64L-G16RevB.01 20-Dec-2017

 ---------------------------------
 # rohf/gen geom=check guess=check
 ---------------------------------

 -----------------------------------
 oxygen dichloride, ROHF/cc-pVTZ-F12
 -----------------------------------
 Structure from the checkpoint file:  "cl2o.chk"
 Charge =  0 Multiplicity = 1

                         Standard orientation:
 ---------------------------------------------------------------------
 Center     Atomic      Atomic             Coordinates (Angstroms)
 Number     Number       Type             X           Y           Z
 ---------------------------------------------------------------------
      1          8           0        0.000000    0.000000    0.766989
      2         17           0        0.000000    1.426421   -0.180468
      3         17           0       -0.000000   -1.426421   -0.180468
 ---------------------------------------------------------------------

 SCF Done:  E(ROHF) =  -993.793063162     A.U. after   12 cycles

 The electronic state is 1-A1.
 Alpha  occ. eigenvalues -- -104.91251-104.91251 -20.70184 -10.63252 -10.63251
 Alpha  occ. eigenvalues --   -8.09955  -8.09955  -8.09689  -8.09688  -8.09669
 Alpha  occ. eigenvalues --   -8.09669  -1.43855  -1.13350  -1.02558  -0.66982
 Alpha  occ. eigenvalues --   -0.66690  -0.64818  -0.50446  -0.48839  -0.48062
 Alpha  occ. eigenvalues --   -0.44892
 Alpha virt. eigenvalues --    0.02054   0.05785   0.08200   0.08916   0.09332
 Alpha virt. eigenvalues --    0.10466   0.11762   0.13235   0.14484   0.18696
 Alpha virt. eigenvalues --    0.19131   0.21162   0.24928   0.31179   0.42268

 Mulliken charges and spin densities:
               1          2
     1  O   -0.323792   0.000000
     2  Cl   0.161896   0.000000
     3  Cl   0.161896   0.000000
 Sum of Mulliken charges =  -0.00000   0.00000

 Dipole moment (field-independent basis, Debye):
    X=             -0.0000    Y=             -0.0000    Z=             -0.7315  Tot=              0.7315
 Quadrupole moment (field-independent basis, Debye-Ang):
   XX=            -30.8845   YY=            -26.6759   ZZ=            -30.4735
   XY=              0.0000   XZ=             -0.0000   YZ=              0.0000

 Normal termination of Gaussian 16 at Sat Sep 30 19:23:54 2023.
