 Gaussian 16, Revision B.01,

 ---------------------------------------
 # b3lyp/gen opt freq CPHF(Grid=OneStep)
 ---------------------------------------

 ------------------------------
 2-chloroethanol, B3LYP/pcseg-2
 ------------------------------
 Symbolic Z-matrix:
 Charge =  0 Multiplicity = 1

 SCF Done:  E(RB3LYP) =  -614.746293984     A.U. after   12 cycles
 Optimization completed.
    -- Stationary point found.
 Normal termination of Gaussian 16 at Fri Sep 29 16:42:04 2023.

 ------------------------------------------------------------------
 #N Geom=AllCheck Guess=TCheck SCRF=Check GenChk RB3LYP/ChkBas Freq
 ------------------------------------------------------------------

 Structure from the checkpoint file:  "clc2h4oh.chk"
 ------------------------------
 2-chloroethanol, B3LYP/pcseg-2
 ------------------------------
 Charge =  0 Multiplicity = 1

 SCF Done:  E(RB3LYP) =  -614.746293984     A.U. after    1 cycles

  Exact polarizability:  53.269   1.071  37.615   0.000  -0.000  33.556
 Approx polarizability:  69.818   4.807  52.804  -0.000  -0.000  47.895

                      1                      2                      3
                     A"                     A"                     A'
 Frequencies --    117.0959               182.3775               247.8100
 Red. masses --      3.5953                 1.0763                 4.1072
 Frc consts  --      0.0290                 0.0211                 0.1486
 IR Inten    --     29.3101               103.7956                 9.4029

                      4                      5                      6
                     A'                     A'                     A"
 Frequencies --    385.2118               755.6944               802.8048
 Red. masses --      8.9298                 5.6870                 1.1117
 Frc consts  --      0.7807                 1.9135                 0.4222
 IR Inten    --      1.9420                68.8863                 0.1763

                      7                      8                      9
                     A'                     A'                     A"
 Frequencies --   1015.9559              1051.0589              1057.0321
 Red. masses --      2.5506                 6.8430                 1.2622
 Frc consts  --      1.5511                 4.4540                 0.8309
 IR Inten    --     14.2822                96.8777                 1.9084

                     10                     11                     12
                     A"                     A'                     A'
 Frequencies --   1205.5984              1227.9338              1298.0450
 Red. masses --      1.2252                 1.1791                 1.2253
 Frc consts  --      1.0492                 1.0475                 1.2164
 IR Inten    --      0.5792                49.7967                 1.0033

                     13                     14                     15
                     A"                     A'                     A'
 Frequencies --   1305.1117              1447.2002              1494.6078
 Red. masses --      1.1151                 1.3966                 1.1075
 Frc consts  --      1.1191                 1.7234                 1.4577
 IR Inten    --      0.0420                 1.7376                 3.4213

                     16                     17                     18
                     A'                     A'                     A"
 Frequencies --   1526.4173              3009.0021              3045.2993
 Red. masses --      1.0864                 1.0547                 1.1093
 Frc consts  --      1.4914                 5.6264                 6.0611
 IR Inten    --      2.2834                35.4760                30.0128

                     19                     20                     21
                     A'                     A"                     A'
 Frequencies --   3096.1464              3156.6917              3843.6031
 Red. masses --      1.0560                 1.1118                 1.0667
 Frc consts  --      5.9645                 6.5272                 9.2847
 IR Inten    --     14.7468                 5.9542                44.4107

 - Thermochemistry -
 -------------------
 Temperature   298.150 Kelvin.  Pressure   1.00000 Atm.
 Atom     1 has atomic number  6 and mass  12.00000

 Molecular mass:    80.00289 amu.
 Principal axes and moments of inertia in atomic units:
                           1         2         3
     Eigenvalues --    61.04765 743.18186 781.57604
           X            0.99882   0.04848   0.00000
           Y           -0.04848   0.99882   0.00000
           Z            0.00000  -0.00000   1.00000
 This molecule is an asymmetric top.
 Rotational symmetry number  1.
 Rotational temperatures (Kelvin)      1.41879     0.11654     0.11082
 Rotational constants (GHZ):          29.56283     2.42840     2.30911
 Zero-point vibrational energy     187040.3 (Joules/Mol)
                                   44.70371 (Kcal/Mol)
 Warning -- explicit consideration of   4 degrees of freedom as
           vibrations may cause significant error
 Vibrational temperatures:    168.47   262.40   356.54   554.23  1087.28
          (Kelvin)           1155.06  1461.73  1512.24  1520.83  1734.59
                             1766.72  1867.60  1877.76  2082.20  2150.41
                             2196.17  4329.28  4381.51  4454.66  4541.78
                             5530.09

 Zero-point correction=                           0.071240 (Hartree/Particle)
 Thermal correction to Energy=                    0.076511
 Thermal correction to Enthalpy=                  0.077455
 Thermal correction to Gibbs Free Energy=         0.042674
 Sum of electronic and zero-point Energies=           -614.675054
 Sum of electronic and thermal Energies=              -614.669783
 Sum of electronic and thermal Enthalpies=            -614.668839
 Sum of electronic and thermal Free Energies=         -614.703620

                     E (Thermal)             CV                S
                      KCal/Mol        Cal/Mol-Kelvin    Cal/Mol-Kelvin
 Total                   48.011             16.323             73.203
 Electronic               0.000              0.000              0.000
 Translational            0.889              2.981             39.053
 Rotational               0.889              2.981             25.076
 Vibrational             46.234             10.362              9.075
 Vibration     1          0.608              1.935              3.148
 Vibration     2          0.630              1.864              2.304
 Vibration     3          0.661              1.766              1.746
 Vibration     4          0.754              1.502              1.019

 Optimization completed.
    -- Stationary point found.
 Normal termination of Gaussian 16 at Fri Sep 29 16:45:18 2023.
 Gaussian 16:  ES64L-G16RevB.01 20-Dec-2017

 ---------------------------------
 # rohf/gen geom=check guess=check
 ---------------------------------

 ---------------------------------
 2-chloroethanol, ROHF/cc-pVTZ-F12
 ---------------------------------
 Structure from the checkpoint file:  "clc2h4oh.chk"
 Charge =  0 Multiplicity = 1

                         Standard orientation:
 ---------------------------------------------------------------------
 Center     Atomic      Atomic             Coordinates (Angstroms)
 Number     Number       Type             X           Y           Z
 ---------------------------------------------------------------------
      1          6           0        0.973047   -0.550228    0.000000
      2          6           0        0.000000    0.611604    0.000000
      3         17           0       -1.696975    0.001212    0.000000
      4          8           0        2.277120    0.022381    0.000000
      5          1           0        0.808698   -1.168878    0.886783
      6          1           0        0.808698   -1.168878   -0.886783
      7          1           0        0.122617    1.225190    0.887247
      8          1           0        0.122617    1.225190   -0.887247
      9          1           0        2.930698   -0.680526    0.000000
 ---------------------------------------------------------------------

 SCF Done:  E(ROHF) =  -613.096201803     A.U. after   10 cycles

 The electronic state is 1-A'.
 Alpha  occ. eigenvalues -- -104.82536 -20.57285 -11.29542 -11.29377 -10.55054
 Alpha  occ. eigenvalues --   -8.01749  -8.01604  -8.01601  -1.37666  -1.13544
 Alpha  occ. eigenvalues --   -0.98788  -0.84436  -0.71273  -0.68090  -0.61029
 Alpha  occ. eigenvalues --   -0.57992  -0.53508  -0.52488  -0.46566  -0.43916
 Alpha  occ. eigenvalues --   -0.43725
 Alpha virt. eigenvalues --    0.04207   0.05852   0.06320   0.06901   0.09099
 Alpha virt. eigenvalues --    0.09278   0.10321   0.11521   0.12572   0.14387
 Alpha virt. eigenvalues --    0.16010   0.17540   0.19049   0.19501   0.21615

 Mulliken charges and spin densities:
               1          2
     1  C    0.139157  -0.000000
     2  C   -0.160931  -0.000000
     3  Cl  -0.118182  -0.000000
     4  O   -0.725826  -0.000000
     5  H    0.095966  -0.000000
     6  H    0.095966  -0.000000
     7  H    0.132565  -0.000000
     8  H    0.132565  -0.000000
     9  H    0.408721  -0.000000
 Sum of Mulliken charges =  -0.00000  -0.00000

 Dipole moment (field-independent basis, Debye):
    X=              1.8090    Y=             -1.0388    Z=              0.0000  Tot=              2.0861
 Quadrupole moment (field-independent basis, Debye-Ang):
   XX=            -33.4950   YY=            -30.0045   ZZ=            -31.6129
   XY=             -4.5665   XZ=             -0.0000   YZ=             -0.0000

 Normal termination of Gaussian 16 at Fri Sep 29 16:46:30 2023.
