 Gaussian 16, Revision B.01,
 Gaussian 16:  ES64L-G16RevB.01 20-Dec-2017

 --------------------
 # b3lyp/gen opt freq
 --------------------

 ------------------------------
 2-chloroethanol, B3LYP/pcseg-2
 ------------------------------
 Symbolic Z-matrix:
 Charge =  0 Multiplicity = 1

 SCF Done:  E(RB3LYP) =  -614.746137305     A.U. after   12 cycles
 SCF Done:  E(RB3LYP) =  -614.746283101     A.U. after   10 cycles
 SCF Done:  E(RB3LYP) =  -614.746292465     A.U. after    8 cycles
 SCF Done:  E(RB3LYP) =  -614.746293984     A.U. after    7 cycles
 Optimization completed.
    -- Stationary point found.
 Normal termination of Gaussian 16 at Thu Jun 16 12:04:13 2022.

 ------------------------------------------------------------------
 #N Geom=AllCheck Guess=TCheck SCRF=Check GenChk RB3LYP/ChkBas Freq
 ------------------------------------------------------------------

 Structure from the checkpoint file:  "/wrk/irikura/Gau-24102.chk"
 ------------------------------
 2-chloroethanol, B3LYP/pcseg-2
 ------------------------------
 Charge =  0 Multiplicity = 1

                         Standard orientation:
 ---------------------------------------------------------------------
 Center     Atomic      Atomic             Coordinates (Angstroms)
 Number     Number       Type             X           Y           Z
 ---------------------------------------------------------------------
      1          6           0        0.973047   -0.550228    0.000000
      2          6           0        0.000000    0.611604    0.000000
      3         17           0       -1.696975    0.001212    0.000000
      4          8           0        2.277120    0.022380    0.000000
      5          1           0        0.808698   -1.168878    0.886783
      6          1           0        0.808698   -1.168878   -0.886783
      7          1           0        0.122617    1.225190    0.887247
      8          1           0        0.122617    1.225190   -0.887247
      9          1           0        2.930698   -0.680527    0.000000
 ---------------------------------------------------------------------

 SCF Done:  E(RB3LYP) =  -614.746293984     A.U. after    1 cycles

 The electronic state is 1-A'.
 Alpha  occ. eigenvalues -- -101.50324 -19.14097 -10.23793 -10.23446  -9.44842
 Alpha  occ. eigenvalues --   -7.20997  -7.20125  -7.20109  -1.04111  -0.86125
 Alpha  occ. eigenvalues --   -0.73929  -0.62550  -0.53728  -0.50255  -0.44549
 Alpha  occ. eigenvalues --   -0.41436  -0.40842  -0.36512  -0.30662  -0.30407
 Alpha  occ. eigenvalues --   -0.29825
 Alpha virt. eigenvalues --   -0.00923   0.02688   0.03394   0.05223   0.05841
 Alpha virt. eigenvalues --    0.09402   0.10963   0.14011   0.17551   0.18587
 Alpha virt. eigenvalues --    0.22373   0.23719   0.25391   0.27799   0.29878

 Mulliken charges:
               1
     1  C    0.181530
     2  C    0.027044
     3  Cl  -0.170460
     4  O   -0.411832
     5  H    0.023577
     6  H    0.023577
     7  H    0.068190
     8  H    0.068190
     9  H    0.190186
 Sum of Mulliken charges =  -0.00000

 Dipole moment (field-independent basis, Debye):
    X=              1.6907    Y=             -1.0250    Z=             -0.0000  Tot=              1.9772
 Quadrupole moment (field-independent basis, Debye-Ang):
   XX=            -33.0267   YY=            -30.2900   ZZ=            -31.8012
   XY=             -4.3983   XZ=             -0.0000   YZ=             -0.0000

  Exact polarizability:  53.269   1.071  37.615   0.000  -0.000  33.556
 Approx polarizability:  69.818   4.807  52.804  -0.000   0.000  47.895

                      1                      2                      3
                     A"                     A"                     A'
 Frequencies --    117.1035               182.3936               247.8093
 Red. masses --      3.5953                 1.0763                 4.1072
 Frc consts  --      0.0290                 0.0211                 0.1486
 IR Inten    --     29.3103               103.8000                 9.4022

                      4                      5                      6
                     A'                     A'                     A"
 Frequencies --    385.2105               755.6937               802.8038
 Red. masses --      8.9298                 5.6870                 1.1117
 Frc consts  --      0.7807                 1.9135                 0.4222
 IR Inten    --      1.9423                68.8852                 0.1764

                      7                      8                      9
                     A'                     A'                     A"
 Frequencies --   1015.9544              1051.0589              1057.0366
 Red. masses --      2.5507                 6.8430                 1.2622
 Frc consts  --      1.5512                 4.4540                 0.8309
 IR Inten    --     14.2827                96.8787                 1.9086

                     10                     11                     12
                     A"                     A'                     A'
 Frequencies --   1205.5990              1227.9331              1298.0477
 Red. masses --      1.2252                 1.1791                 1.2253
 Frc consts  --      1.0492                 1.0475                 1.2164
 IR Inten    --      0.5792                49.7967                 1.0033

                     13                     14                     15
                     A"                     A'                     A'
 Frequencies --   1305.1124              1447.2013              1494.6090
 Red. masses --      1.1151                 1.3966                 1.1075
 Frc consts  --      1.1191                 1.7234                 1.4577
 IR Inten    --      0.0419                 1.7378                 3.4216

                     16                     17                     18
                     A'                     A'                     A"
 Frequencies --   1526.4188              3009.0034              3045.2980
 Red. masses --      1.0864                 1.0547                 1.1093
 Frc consts  --      1.4914                 5.6264                 6.0611
 IR Inten    --      2.2836                35.4760                30.0128

                     19                     20                     21
                     A'                     A"                     A'
 Frequencies --   3096.1493              3156.6925              3843.6024
 Red. masses --      1.0560                 1.1118                 1.0667
 Frc consts  --      5.9645                 6.5272                 9.2847
 IR Inten    --     14.7470                 5.9538                44.4114

 - Thermochemistry -
 -------------------
 Temperature   298.150 Kelvin.  Pressure   1.00000 Atm.
 Atom     1 has atomic number  6 and mass  12.00000

 Molecular mass:    80.00289 amu.
 Principal axes and moments of inertia in atomic units:
                           1         2         3
     Eigenvalues --    61.04762 743.18182 781.57597
           X            0.99882   0.04848   0.00000
           Y           -0.04848   0.99882   0.00000
           Z            0.00000  -0.00000   1.00000
 This molecule is an asymmetric top.
 Rotational symmetry number  1.
 Rotational temperatures (Kelvin)      1.41879     0.11654     0.11082
 Rotational constants (GHZ):          29.56284     2.42840     2.30911
 Zero-point vibrational energy     187040.5 (Joules/Mol)
                                   44.70375 (Kcal/Mol)
 Warning -- explicit consideration of   4 degrees of freedom as
           vibrations may cause significant error
 Vibrational temperatures:    168.49   262.42   356.54   554.23  1087.27
          (Kelvin)           1155.06  1461.73  1512.24  1520.84  1734.59
                             1766.72  1867.60  1877.77  2082.20  2150.41
                             2196.18  4329.28  4381.50  4454.67  4541.78
                             5530.09

 Zero-point correction=                           0.071240 (Hartree/Particle)
 Thermal correction to Energy=                    0.076511
 Thermal correction to Enthalpy=                  0.077455
 Thermal correction to Gibbs Free Energy=         0.042674
 Sum of electronic and zero-point Energies=           -614.675054
 Sum of electronic and thermal Energies=              -614.669783
 Sum of electronic and thermal Enthalpies=            -614.668839
 Sum of electronic and thermal Free Energies=         -614.703620

                     E (Thermal)             CV                S
                      KCal/Mol        Cal/Mol-Kelvin    Cal/Mol-Kelvin
 Total                   48.011             16.323             73.203
 Electronic               0.000              0.000              0.000
 Translational            0.889              2.981             39.053
 Rotational               0.889              2.981             25.076
 Vibrational             46.234             10.361              9.075
 Vibration     1          0.608              1.935              3.148
 Vibration     2          0.630              1.864              2.304
 Vibration     3          0.661              1.766              1.746
 Vibration     4          0.754              1.502              1.019

 Optimization completed.
    -- Stationary point found.
 Normal termination of Gaussian 16 at Thu Jun 16 12:05:07 2022.
