 Gaussian 16, Revision B.01,

 ---------------------------------------
 # b3lyp/gen opt freq CPHF(Grid=OneStep)
 ---------------------------------------

 ----------------------------------
 chlorohydroxymethyl, B3LYP/pcseg-2
 ----------------------------------
 Symbolic Z-matrix:
 Charge =  0 Multiplicity = 2

 SCF Done:  E(UB3LYP) =  -574.759413314     A.U. after   14 cycles
 Optimization completed.
    -- Stationary point found.
 Normal termination of Gaussian 16 at Sat Sep 30 01:21:53 2023.

 ------------------------------------------------------------------
 #N Geom=AllCheck Guess=TCheck SCRF=Check GenChk UB3LYP/ChkBas Freq
 ------------------------------------------------------------------

 Structure from the checkpoint file:  "clchoh.chk"
 ----------------------------------
 chlorohydroxymethyl, B3LYP/pcseg-2
 ----------------------------------
 Charge =  0 Multiplicity = 2

 SCF Done:  E(UB3LYP) =  -574.759413314     A.U. after    1 cycles

  Exact polarizability:  38.044   1.934  27.039   1.025  -0.106  20.513
 Approx polarizability:  54.789   4.016  37.446   1.308  -0.300  28.315

                      1                      2                      3
                      A                      A                      A
 Frequencies --    354.5473               442.4620               670.8565
 Red. masses --      1.7514                 2.4091                 4.4579
 Frc consts  --      0.1297                 0.2779                 1.1821
 IR Inten    --     76.0516                70.1173                62.0049

                      4                      5                      6
                      A                      A                      A
 Frequencies --    810.8276              1159.9196              1256.3310
 Red. masses --      1.4350                 1.6908                 2.4473
 Frc consts  --      0.5558                 1.3403                 2.2759
 IR Inten    --     43.8912               223.4891                57.7504

                      7                      8                      9
                      A                      A                      A
 Frequencies --   1364.8460              3193.9320              3787.3993
 Red. masses --      1.1932                 1.0882                 1.0655
 Frc consts  --      1.3096                 6.5407                 9.0049
 IR Inten    --     88.4954                 5.3681                71.1201

 - Thermochemistry -
 -------------------
 Temperature   298.150 Kelvin.  Pressure   1.00000 Atm.
 Atom     1 has atomic number  6 and mass  12.00000

 Molecular mass:    64.97942 amu.
 Principal axes and moments of inertia in atomic units:
                           1         2         3
     Eigenvalues --    34.03093 308.90575 339.14143
           X            0.99996  -0.00825   0.00343
           Y            0.00852   0.99605  -0.08837
           Z           -0.00269   0.08839   0.99608
 This molecule is an asymmetric top.
 Rotational symmetry number  1.
 Rotational temperatures (Kelvin)      2.54515     0.28039     0.25539
 Rotational constants (GHZ):          53.03238     5.84237     5.32150
 Zero-point vibrational energy      78003.2 (Joules/Mol)
                                   18.64322 (Kcal/Mol)
 Warning -- explicit consideration of   2 degrees of freedom as
           vibrations may cause significant error
 Vibrational temperatures:    510.11   636.60   965.21  1166.60  1668.87
          (Kelvin)           1807.58  1963.71  4595.36  5449.22

 Zero-point correction=                           0.029710 (Hartree/Particle)
 Thermal correction to Energy=                    0.033411
 Thermal correction to Enthalpy=                  0.034355
 Thermal correction to Gibbs Free Energy=         0.003371
 Sum of electronic and zero-point Energies=           -574.729703
 Sum of electronic and thermal Energies=              -574.726002
 Sum of electronic and thermal Enthalpies=            -574.725058
 Sum of electronic and thermal Free Energies=         -574.756043

                     E (Thermal)             CV                S
                      KCal/Mol        Cal/Mol-Kelvin    Cal/Mol-Kelvin
 Total                   20.966             10.947             65.212
 Electronic               0.000              0.000              1.377
 Translational            0.889              2.981             38.433
 Rotational               0.889              2.981             22.793
 Vibrational             19.188              4.985              2.608
 Vibration     1          0.730              1.566              1.146
 Vibration     2          0.802              1.378              0.819

 Optimization completed.
    -- Stationary point found.
 Normal termination of Gaussian 16 at Sat Sep 30 01:23:28 2023.
 Gaussian 16:  ES64L-G16RevB.01 20-Dec-2017

 ---------------------------------
 # rohf/gen geom=check guess=check
 ---------------------------------

 -------------------------------------
 chlorohydroxymethyl, ROHF/cc-pVTZ-F12
 -------------------------------------
 Structure from the checkpoint file:  "clchoh.chk"
 Charge =  0 Multiplicity = 2

                         Standard orientation:
 ---------------------------------------------------------------------
 Center     Atomic      Atomic             Coordinates (Angstroms)
 Number     Number       Type             X           Y           Z
 ---------------------------------------------------------------------
      1          6           0        0.546084    0.565536    0.159674
      2          8           0        1.589839   -0.251803   -0.086421
      3         17           0       -1.064125   -0.106479   -0.017766
      4          1           0        0.662680    1.552036   -0.265062
      5          1           0        1.432229   -1.120694    0.300409
 ---------------------------------------------------------------------

 SCF Done:  E(ROHF) =  -573.416791457     A.U. after   15 cycles

 The electronic state is 2-A.
 Alpha  occ. eigenvalues -- -104.84546 -20.60978 -11.34413 -10.57071  -8.03755
 Alpha  occ. eigenvalues --   -8.03625  -8.03581  -1.42610  -1.12863  -0.88239
 Alpha  occ. eigenvalues --   -0.69727  -0.67179  -0.59635  -0.53342  -0.47422
 Alpha  occ. eigenvalues --   -0.46605  -0.07734
 Alpha virt. eigenvalues --    0.05774   0.06253   0.06755   0.08000   0.10891
 Alpha virt. eigenvalues --    0.11815   0.12255   0.15394   0.16838   0.19323
 Alpha virt. eigenvalues --    0.21586   0.22573   0.24089   0.24653   0.28370

 Mulliken charges and spin densities:
               1          2
     1  C    0.066593   0.885902
     2  O   -0.573917   0.054391
     3  Cl  -0.068238   0.045661
     4  H    0.170145   0.015190
     5  H    0.405416  -0.001144
 Sum of Mulliken charges =  -0.00000   1.00000

 Dipole moment (field-independent basis, Debye):
    X=              0.5233    Y=             -0.2557    Z=              0.4013  Tot=              0.7073
 Quadrupole moment (field-independent basis, Debye-Ang):
   XX=            -27.1100   YY=            -20.9171   ZZ=            -25.4944
   XY=             -0.9262   XZ=              1.0289   YZ=             -1.5041

 Normal termination of Gaussian 16 at Sat Sep 30 01:23:47 2023.
