 Gaussian 16, Revision B.01,
 Gaussian 16:  ES64L-G16RevB.01 20-Dec-2017

 --------------------
 # b3lyp/gen opt freq
 --------------------

 ----------------------------------
 chlorohydroxymethyl, B3LYP/pcseg-2
 ----------------------------------
 Symbolic Z-matrix:
 Charge =  0 Multiplicity = 2

 SCF Done:  E(UB3LYP) =  -574.759321437     A.U. after   14 cycles
 SCF Done:  E(UB3LYP) =  -574.759398622     A.U. after   10 cycles
 SCF Done:  E(UB3LYP) =  -574.759411133     A.U. after    9 cycles
 SCF Done:  E(UB3LYP) =  -574.759413314     A.U. after    9 cycles
 Optimization completed.
    -- Stationary point found.
 Normal termination of Gaussian 16 at Wed Sep 13 10:29:59 2023.

 ------------------------------------------------------------------
 #N Geom=AllCheck Guess=TCheck SCRF=Check GenChk UB3LYP/ChkBas Freq
 ------------------------------------------------------------------

 Structure from the checkpoint file:  "/wrk/irikura/Gau-449953.chk"
 ----------------------------------
 chlorohydroxymethyl, B3LYP/pcseg-2
 ----------------------------------
 Charge =  0 Multiplicity = 2

                         Standard orientation:
 ---------------------------------------------------------------------
 Center     Atomic      Atomic             Coordinates (Angstroms)
 Number     Number       Type             X           Y           Z
 ---------------------------------------------------------------------
      1          6           0        0.546084    0.565536    0.159674
      2          8           0        1.589839   -0.251802   -0.086421
      3         17           0       -1.064125   -0.106479   -0.017766
      4          1           0        0.662679    1.552036   -0.265062
      5          1           0        1.432229   -1.120694    0.300409
 ---------------------------------------------------------------------

 SCF Done:  E(UB3LYP) =  -574.759413314     A.U. after    1 cycles

 The electronic state is 2-A.
 Alpha  occ. eigenvalues -- -101.52360 -19.18765 -10.28831  -9.46866  -7.22969
 Alpha  occ. eigenvalues --   -7.22248  -7.22143  -1.09885  -0.86519  -0.68336
 Alpha  occ. eigenvalues --   -0.53624  -0.50038  -0.45040  -0.39462  -0.34412
 Alpha  occ. eigenvalues --   -0.33174  -0.20813
 Alpha virt. eigenvalues --    0.00189   0.02223   0.05237   0.11265   0.15424
 Alpha virt. eigenvalues --    0.17375   0.23281   0.26217   0.29133   0.30288
 Alpha virt. eigenvalues --    0.32885   0.33239   0.34249   0.36189   0.38729

  Beta  occ. eigenvalues -- -101.52276 -19.18306 -10.27393  -9.46782  -7.22881
  Beta  occ. eigenvalues --   -7.22092  -7.22026  -1.08834  -0.85721  -0.66706
  Beta  occ. eigenvalues --   -0.52339  -0.49080  -0.41667  -0.38282  -0.33272
  Beta  occ. eigenvalues --   -0.32808
  Beta virt. eigenvalues --   -0.06721   0.00446   0.03033   0.05963   0.11691
  Beta virt. eigenvalues --    0.16106   0.19227   0.24053   0.26825   0.29817
  Beta virt. eigenvalues --    0.30774   0.33384   0.33779   0.34618   0.36738

 Mulliken charges and spin densities:
               1          2
     1  C    0.150698   0.826084
     2  O   -0.314044   0.105221
     3  Cl  -0.122875   0.081178
     4  H    0.076363  -0.010319
     5  H    0.209858  -0.002164
 Sum of Mulliken charges =   0.00000   1.00000

 Dipole moment (field-independent basis, Debye):
    X=              0.5399    Y=             -0.5336    Z=              0.2074  Tot=              0.7869
 Quadrupole moment (field-independent basis, Debye-Ang):
   XX=            -26.6877   YY=            -21.1940   ZZ=            -25.7121
   XY=             -1.1641   XZ=              0.8843   YZ=             -1.5504

  Exact polarizability:  38.044   1.934  27.039   1.025  -0.106  20.513
 Approx polarizability:  54.789   4.016  37.446   1.308  -0.300  28.315

                      1                      2                      3
                      A                      A                      A
 Frequencies --    354.5431               442.4561               670.8587
 Red. masses --      1.7513                 2.4091                 4.4581
 Frc consts  --      0.1297                 0.2779                 1.1821
 IR Inten    --     76.0515                70.1151                62.0084

                      4                      5                      6
                      A                      A                      A
 Frequencies --    810.8318              1159.9176              1256.3343
 Red. masses --      1.4349                 1.6908                 2.4473
 Frc consts  --      0.5558                 1.3403                 2.2759
 IR Inten    --     43.8921               223.4896                57.7449

                      7                      8                      9
                      A                      A                      A
 Frequencies --   1364.8467              3193.9303              3787.4032
 Red. masses --      1.1932                 1.0882                 1.0655
 Frc consts  --      1.3096                 6.5407                 9.0049
 IR Inten    --     88.4957                 5.3676                71.1210

 - Thermochemistry -
 -------------------
 Temperature   298.150 Kelvin.  Pressure   1.00000 Atm.
 Atom     1 has atomic number  6 and mass  12.00000

 Molecular mass:    64.97942 amu.
 Principal axes and moments of inertia in atomic units:
                           1         2         3
     Eigenvalues --    34.03092 308.90584 339.14151
           X            0.99996  -0.00825   0.00343
           Y            0.00852   0.99605  -0.08837
           Z           -0.00269   0.08839   0.99608
 This molecule is an asymmetric top.
 Rotational symmetry number  1.
 Rotational temperatures (Kelvin)      2.54515     0.28039     0.25539
 Rotational constants (GHZ):          53.03240     5.84237     5.32150
 Zero-point vibrational energy      78003.2 (Joules/Mol)
                                   18.64322 (Kcal/Mol)
 Warning -- explicit consideration of   2 degrees of freedom as
           vibrations may cause significant error
 Vibrational temperatures:    510.11   636.60   965.22  1166.61  1668.86
          (Kelvin)           1807.58  1963.71  4595.35  5449.23

 Zero-point correction=                           0.029710 (Hartree/Particle)
 Thermal correction to Energy=                    0.033411
 Thermal correction to Enthalpy=                  0.034355
 Thermal correction to Gibbs Free Energy=         0.003371
 Sum of electronic and zero-point Energies=           -574.729703
 Sum of electronic and thermal Energies=              -574.726002
 Sum of electronic and thermal Enthalpies=            -574.725058
 Sum of electronic and thermal Free Energies=         -574.756043

                     E (Thermal)             CV                S
                      KCal/Mol        Cal/Mol-Kelvin    Cal/Mol-Kelvin
 Total                   20.966             10.947             65.212
 Electronic               0.000              0.000              1.377
 Translational            0.889              2.981             38.433
 Rotational               0.889              2.981             22.793
 Vibrational             19.188              4.985              2.608
 Vibration     1          0.730              1.566              1.146
 Vibration     2          0.802              1.378              0.819

 Optimization completed.
    -- Stationary point found.
 Normal termination of Gaussian 16 at Wed Sep 13 10:30:29 2023.
