 Gaussian 16, Revision B.01,
 Gaussian 16:  ES64L-G16RevB.01 20-Dec-2017

 --------------------
 # b3lyp/gen opt freq
 --------------------

 --------------------------------
 cyanogen chloride, B3LYP/pcseg-2
 --------------------------------
 Symbolic Z-matrix:
 Charge =  0 Multiplicity = 1

 SCF Done:  E(RB3LYP) =  -553.090059995     A.U. after   12 cycles
 SCF Done:  E(RB3LYP) =  -553.090151205     A.U. after    9 cycles
 SCF Done:  E(RB3LYP) =  -553.090151664     A.U. after    7 cycles
 Optimization completed.
    -- Stationary point found.
 Normal termination of Gaussian 16 at Wed Jun 15 11:31:10 2022.

 ------------------------------------------------------------------
 #N Geom=AllCheck Guess=TCheck SCRF=Check GenChk RB3LYP/ChkBas Freq
 ------------------------------------------------------------------

 Structure from the checkpoint file:  "/wrk/irikura/Gau-10310.chk"
 --------------------------------
 cyanogen chloride, B3LYP/pcseg-2
 --------------------------------
 Charge =  0 Multiplicity = 1

                         Standard orientation:
 ---------------------------------------------------------------------
 Center     Atomic      Atomic             Coordinates (Angstroms)
 Number     Number       Type             X           Y           Z
 ---------------------------------------------------------------------
      1         17           0        0.000000    0.000000    0.976849
      2          6           0        0.000000    0.000000   -0.656846
      3          7           0        0.000000    0.000000   -1.809338
 ---------------------------------------------------------------------

 SCF Done:  E(RB3LYP) =  -553.090151664     A.U. after    1 cycles

 The electronic state is 1-SG.
 Alpha  occ. eigenvalues -- -101.60327 -14.34560 -10.27711  -9.54687  -7.30947
 Alpha  occ. eigenvalues --   -7.29920  -7.29920  -0.97136  -0.91436  -0.58647
 Alpha  occ. eigenvalues --   -0.44932  -0.44932  -0.39777  -0.34491  -0.34491
 Alpha virt. eigenvalues --   -0.02690   0.00234   0.00234   0.08193   0.12936
 Alpha virt. eigenvalues --    0.16301   0.16301   0.24990   0.30060   0.30060
 Alpha virt. eigenvalues --    0.31866   0.40104   0.40104   0.47874   0.47874

 Mulliken charges:
               1
     1  Cl   0.036174
     2  C    0.106066
     3  N   -0.142240
 Sum of Mulliken charges =  -0.00000

 Dipole moment (field-independent basis, Debye):
    X=              0.0000    Y=              0.0000    Z=              2.9821  Tot=              2.9821
 Quadrupole moment (field-independent basis, Debye-Ang):
   XX=            -23.0685   YY=            -23.0685   ZZ=            -27.3062
   XY=              0.0000   XZ=              0.0000   YZ=              0.0000

  Exact polarizability:  16.964  -0.000  16.964   0.000   0.000  43.501
 Approx polarizability:  24.048  -0.000  24.048  -0.000  -0.000  78.653

                      1                      2                      3
                     PI                     PI                     SG
 Frequencies --    406.5433               406.5433               745.4156
 Red. masses --     12.7611                12.7611                17.9640
 Frc consts  --      1.2427                 1.2427                 5.8810
 IR Inten    --      2.7786                 2.7786                 8.0264

                      4
                     SG
 Frequencies --   2307.7230
 Red. masses --     12.7432
 Frc consts  --     39.9849
 IR Inten    --     48.2779

 - Thermochemistry -
 -------------------
 Temperature   298.150 Kelvin.  Pressure   1.00000 Atm.
 Atom     1 has atomic number 17 and mass  34.96885

 Molecular mass:    60.97193 amu.
 Principal axes and moments of inertia in atomic units:
                           1         2         3
     Eigenvalues --     0.00000 301.30236 301.30236
           X            0.00000  -0.00000   1.00000
           Y            0.00000   1.00000   0.00000
           Z            1.00000   0.00000   0.00000
 This molecule is a prolate symmetric top.
 Rotational symmetry number  1.
 Rotational temperature (Kelvin)      0.28747
 Rotational constant (GHZ):           5.989801
 Zero-point vibrational energy      23125.2 (Joules/Mol)
                                    5.52705 (Kcal/Mol)
 Warning -- explicit consideration of   2 degrees of freedom as
           vibrations may cause significant error
 Vibrational temperatures:    584.93   584.93  1072.49  3320.30
          (Kelvin)

 Zero-point correction=                           0.008808 (Hartree/Particle)
 Thermal correction to Energy=                    0.011870
 Thermal correction to Enthalpy=                  0.012814
 Thermal correction to Gibbs Free Energy=        -0.013871
 Sum of electronic and zero-point Energies=           -553.081344
 Sum of electronic and thermal Energies=              -553.078281
 Sum of electronic and thermal Enthalpies=            -553.077337
 Sum of electronic and thermal Free Energies=         -553.104023

                     E (Thermal)             CV                S
                      KCal/Mol        Cal/Mol-Kelvin    Cal/Mol-Kelvin
 Total                    7.449              8.628             56.165
 Electronic               0.000              0.000              0.000
 Translational            0.889              2.981             38.243
 Rotational               0.592              1.987             15.787
 Vibrational              5.968              3.660              2.135
 Vibration     1          0.771              1.456              0.939
 Vibration     2          0.771              1.456              0.939

 Optimization completed.
    -- Stationary point found.
 Normal termination of Gaussian 16 at Wed Jun 15 11:31:18 2022.
