 Gaussian 16, Revision B.01,
 Gaussian 16:  ES64L-G16RevB.01 20-Dec-2017

 --------------------
 # b3lyp/gen opt freq
 --------------------

 ---------------------------
 chloroformyl, B3LYP/pcseg-2
 ---------------------------
 Symbolic Z-matrix:
 Charge =  0 Multiplicity = 2

 SCF Done:  E(UB3LYP) =  -573.555985688     A.U. after   16 cycles
 SCF Done:  E(UB3LYP) =  -573.556110865     A.U. after   10 cycles
 SCF Done:  E(UB3LYP) =  -573.556210152     A.U. after   12 cycles
 SCF Done:  E(UB3LYP) =  -573.556219132     A.U. after   10 cycles
 SCF Done:  E(UB3LYP) =  -573.556221315     A.U. after    9 cycles
 Optimization completed.
    -- Stationary point found.
 Normal termination of Gaussian 16 at Thu Jun 16 16:21:37 2022.

 ------------------------------------------------------------------
 #N Geom=AllCheck Guess=TCheck SCRF=Check GenChk UB3LYP/ChkBas Freq
 ------------------------------------------------------------------

 Structure from the checkpoint file:  "/wrk/irikura/Gau-3900.chk"
 ---------------------------
 chloroformyl, B3LYP/pcseg-2
 ---------------------------
 Charge =  0 Multiplicity = 2

                         Standard orientation:
 ---------------------------------------------------------------------
 Center     Atomic      Atomic             Coordinates (Angstroms)
 Number     Number       Type             X           Y           Z
 ---------------------------------------------------------------------
      1         17           0       -0.498205   -0.907162    0.000000
      2          6           0        0.000000    0.838897    0.000000
      3          8           0        1.058686    1.298547    0.000000
 ---------------------------------------------------------------------

 SCF Done:  E(UB3LYP) =  -573.556221315     A.U. after    1 cycles

 The electronic state is 2-A'.
 Alpha  occ. eigenvalues -- -101.55549 -19.22298 -10.34646  -9.49934  -7.26375
 Alpha  occ. eigenvalues --   -7.25204  -7.25126  -1.16141  -0.88274  -0.60114
 Alpha  occ. eigenvalues --   -0.52455  -0.49133  -0.48767  -0.36409  -0.35964
 Alpha  occ. eigenvalues --   -0.27141
 Alpha virt. eigenvalues --   -0.06920   0.01054   0.09315   0.12849   0.15159
 Alpha virt. eigenvalues --    0.15797   0.28408   0.30365   0.31990   0.31991
 Alpha virt. eigenvalues --    0.39052   0.40095   0.45501   0.49779   0.52648

  Beta  occ. eigenvalues -- -101.55259 -19.21749 -10.33531  -9.49650  -7.25553
  Beta  occ. eigenvalues --   -7.25031  -7.24900  -1.15018  -0.86496  -0.58135
  Beta  occ. eigenvalues --   -0.50365  -0.48091  -0.45146  -0.35909  -0.35041
  Beta virt. eigenvalues --   -0.14748  -0.05033   0.02917   0.09880   0.13094
  Beta virt. eigenvalues --    0.16188   0.16849   0.29520   0.30576   0.32340
  Beta virt. eigenvalues --    0.32865   0.39799   0.40340   0.46931   0.50956

 Mulliken charges and spin densities:
               1          2
     1  Cl  -0.052221   0.297426
     2  C    0.234265   0.572127
     3  O   -0.182043   0.130448
 Sum of Mulliken charges =  -0.00000   1.00000

 Dipole moment (field-independent basis, Debye):
    X=             -0.4578    Y=             -0.1832    Z=              0.0000  Tot=              0.4931
 Quadrupole moment (field-independent basis, Debye-Ang):
   XX=            -24.7563   YY=            -23.5670   ZZ=            -22.7103
   XY=             -0.9039   XZ=              0.0000   YZ=              0.0000

  Exact polarizability:  24.059   8.432  37.340  -0.000  -0.000  16.589
 Approx polarizability:  39.347  16.588  59.720  -0.000  -0.000  23.675

                      1                      2                      3
                     A'                     A'                     A'
 Frequencies --    348.5517               589.1951              1943.3554
 Red. masses --     19.1249                13.0861                13.5233
 Frc consts  --      1.3689                 2.6766                30.0912
 IR Inten    --     37.1959               102.3390               404.6157

 - Thermochemistry -
 -------------------
 Temperature   298.150 Kelvin.  Pressure   1.00000 Atm.
 Atom     1 has atomic number 17 and mass  34.96885

 Molecular mass:    62.96377 amu.
 Principal axes and moments of inertia in atomic units:
                           1         2         3
     Eigenvalues --    11.39893 312.79688 324.19582
           X            0.52667   0.85007   0.00000
           Y            0.85007  -0.52667   0.00000
           Z            0.00000  -0.00000   1.00000
 This molecule is an asymmetric top.
 Rotational symmetry number  1.
 Rotational temperatures (Kelvin)      7.59842     0.27690     0.26717
 Rotational constants (GHZ):         158.32544     5.76969     5.56682
 Zero-point vibrational energy      17232.8 (Joules/Mol)
                                    4.11874 (Kcal/Mol)
 Warning -- explicit consideration of   2 degrees of freedom as
           vibrations may cause significant error
 Vibrational temperatures:    501.49   847.72  2796.05
          (Kelvin)

 Zero-point correction=                           0.006564 (Hartree/Particle)
 Thermal correction to Energy=                    0.009926
 Thermal correction to Enthalpy=                  0.010870
 Thermal correction to Gibbs Free Energy=        -0.019079
 Sum of electronic and zero-point Energies=           -573.549658
 Sum of electronic and thermal Energies=              -573.546295
 Sum of electronic and thermal Enthalpies=            -573.545351
 Sum of electronic and thermal Free Energies=         -573.575301

                     E (Thermal)             CV                S
                      KCal/Mol        Cal/Mol-Kelvin    Cal/Mol-Kelvin
 Total                    6.229              8.609             63.034
 Electronic               0.000              0.000              1.377
 Translational            0.889              2.981             38.339
 Rotational               0.889              2.981             21.674
 Vibrational              4.451              2.648              1.643
 Vibration     1          0.726              1.578              1.173
 Vibration     2          0.946              1.055              0.469

 Optimization completed.
    -- Stationary point found.
 Normal termination of Gaussian 16 at Thu Jun 16 16:21:55 2022.
