 Gaussian 16, Revision B.01,
 Gaussian 16:  ES64L-G16RevB.01 20-Dec-2017

 --------------------
 # b3lyp/gen opt freq
 --------------------

 ----------------------------------
 chlorine difluoride, B3LYP/pcseg-2
 ----------------------------------
 Symbolic Z-matrix:
 Charge =  0 Multiplicity = 2

 SCF Done:  E(UB3LYP) =  -659.845321787     A.U. after   16 cycles
 SCF Done:  E(UB3LYP) =  -659.845355373     A.U. after   10 cycles
 SCF Done:  E(UB3LYP) =  -659.845359730     A.U. after    9 cycles
 Optimization completed.
    -- Stationary point found.
 Normal termination of Gaussian 16 at Thu Jun 16 18:47:08 2022.

 ------------------------------------------------------------------
 #N Geom=AllCheck Guess=TCheck SCRF=Check GenChk UB3LYP/ChkBas Freq
 ------------------------------------------------------------------

 Structure from the checkpoint file:  "/wrk/irikura/Gau-5240.chk"
 ----------------------------------
 chlorine difluoride, B3LYP/pcseg-2
 ----------------------------------
 Charge =  0 Multiplicity = 2

                         Standard orientation:
 ---------------------------------------------------------------------
 Center     Atomic      Atomic             Coordinates (Angstroms)
 Number     Number       Type             X           Y           Z
 ---------------------------------------------------------------------
      1         17           0        0.000000    0.000000    0.197488
      2          9           0       -0.000000    1.693453   -0.186516
      3          9           0       -0.000000   -1.693453   -0.186516
 ---------------------------------------------------------------------

 SCF Done:  E(UB3LYP) =  -659.845359730     A.U. after    1 cycles

 The electronic state is 2-A1.
 Alpha  occ. eigenvalues -- -101.68575 -24.72443 -24.72443  -9.61521  -7.38107
 Alpha  occ. eigenvalues --   -7.37554  -7.36185  -1.23488  -1.21684  -0.89694
 Alpha  occ. eigenvalues --   -0.60075  -0.53103  -0.50502  -0.47274  -0.45934
 Alpha  occ. eigenvalues --   -0.43259  -0.37203  -0.36166
 Alpha virt. eigenvalues --   -0.09585   0.23382   0.26421   0.27642   0.35179
 Alpha virt. eigenvalues --    0.36125   0.39216   0.40471   0.43346   0.44063
 Alpha virt. eigenvalues --    0.47611   0.52840   0.53731   0.55800   0.56159

  Beta  occ. eigenvalues -- -101.68122 -24.71507 -24.71507  -9.61073  -7.37905
  Beta  occ. eigenvalues --   -7.36144  -7.35908  -1.21326  -1.19528  -0.86774
  Beta  occ. eigenvalues --   -0.58058  -0.49656  -0.48403  -0.45143  -0.43357
  Beta  occ. eigenvalues --   -0.42044  -0.35132
  Beta virt. eigenvalues --   -0.24452  -0.07987   0.24164   0.27887   0.27967
  Beta virt. eigenvalues --    0.35404   0.37437   0.40011   0.41522   0.45971
  Beta virt. eigenvalues --    0.46341   0.48378   0.53773   0.54433   0.56286

 Mulliken charges and spin densities:
               1          2
     1  Cl   0.553870   0.540554
     2  F   -0.276935   0.229723
     3  F   -0.276935   0.229723
 Sum of Mulliken charges =  -0.00000   1.00000

 Dipole moment (field-independent basis, Debye):
    X=              0.0000    Y=             -0.0000    Z=              0.7029  Tot=              0.7029
 Quadrupole moment (field-independent basis, Debye-Ang):
   XX=            -22.0657   YY=            -26.7446   ZZ=            -21.1176
   XY=             -0.0000   XZ=             -0.0000   YZ=             -0.0000

  Exact polarizability:   9.877  -0.000  42.110   0.000  -0.000  11.235
 Approx polarizability:  13.196   0.000  83.387   0.000   0.000  16.100

                      1                      2                      3
                     A1                     B2                     A1
 Frequencies --    233.6740               539.9016               553.0096
 Red. masses --     24.2252                24.7410                19.4272
 Frc consts  --      0.7794                 4.2491                 3.5005
 IR Inten    --      8.2456               219.7061                 3.1278

 - Thermochemistry -
 -------------------
 Temperature   298.150 Kelvin.  Pressure   1.00000 Atm.
 Atom     1 has atomic number 17 and mass  34.96885

 Molecular mass:    72.96566 amu.
 Principal axes and moments of inertia in atomic units:
                           1         2         3
     Eigenvalues --     9.58915 389.12662 398.71577
           X            0.00000   0.00000   1.00000
           Y            1.00000   0.00000  -0.00000
           Z            0.00000   1.00000   0.00000
 This molecule is an asymmetric top.
 Rotational symmetry number  2.
 Rotational temperatures (Kelvin)      9.03250     0.22259     0.21723
 Rotational constants (GHZ):         188.20668     4.63793     4.52639
 Zero-point vibrational energy       7934.7 (Joules/Mol)
                                    1.89645 (Kcal/Mol)
 Warning -- explicit consideration of   3 degrees of freedom as
           vibrations may cause significant error
 Vibrational temperatures:    336.20   776.80   795.66
          (Kelvin)

 Zero-point correction=                           0.003022 (Hartree/Particle)
 Thermal correction to Energy=                    0.006749
 Thermal correction to Enthalpy=                  0.007693
 Thermal correction to Gibbs Free Energy=        -0.022553
 Sum of electronic and zero-point Energies=           -659.842338
 Sum of electronic and thermal Energies=              -659.838611
 Sum of electronic and thermal Enthalpies=            -659.837667
 Sum of electronic and thermal Free Energies=         -659.867913

                     E (Thermal)             CV                S
                      KCal/Mol        Cal/Mol-Kelvin    Cal/Mol-Kelvin
 Total                    4.235             10.046             63.657
 Electronic               0.000              0.000              1.377
 Translational            0.889              2.981             38.779
 Rotational               0.889              2.981             20.547
 Vibrational              2.457              4.084              2.954
 Vibration     1          0.654              1.789              1.851
 Vibration     2          0.895              1.162              0.565
 Vibration     3          0.908              1.133              0.538

 Optimization completed.
    -- Stationary point found.
 Normal termination of Gaussian 16 at Thu Jun 16 18:47:17 2022.
