 Gaussian 16, Revision B.01,
 Gaussian 16:  ES64L-G16RevB.01 20-Dec-2017

 --------------------
 # b3lyp/gen opt freq
 --------------------

 -----------------------------------
 chlorine trifluoride, B3LYP/pcseg-2
 -----------------------------------
 Symbolic Z-matrix:
 Charge =  0 Multiplicity = 1

 SCF Done:  E(RB3LYP) =  -759.681661782     A.U. after   13 cycles
 SCF Done:  E(RB3LYP) =  -759.681751414     A.U. after    9 cycles
 SCF Done:  E(RB3LYP) =  -759.681774446     A.U. after    8 cycles
 SCF Done:  E(RB3LYP) =  -759.681776648     A.U. after    8 cycles
 Optimization completed.
    -- Stationary point found.
 Normal termination of Gaussian 16 at Wed Jun 15 20:56:40 2022.

 ------------------------------------------------------------------
 #N Geom=AllCheck Guess=TCheck SCRF=Check GenChk RB3LYP/ChkBas Freq
 ------------------------------------------------------------------

 Structure from the checkpoint file:  "/wrk/irikura/Gau-21628.chk"
 -----------------------------------
 chlorine trifluoride, B3LYP/pcseg-2
 -----------------------------------
 Charge =  0 Multiplicity = 1

                         Standard orientation:
 ---------------------------------------------------------------------
 Center     Atomic      Atomic             Coordinates (Angstroms)
 Number     Number       Type             X           Y           Z
 ---------------------------------------------------------------------
      1         17           0        0.000000    0.000000    0.359610
      2          9           0       -0.000000   -0.000000   -1.261218
      3          9           0       -0.000000    1.724879    0.290977
      4          9           0       -0.000000   -1.724879    0.290977
 ---------------------------------------------------------------------

 SCF Done:  E(RB3LYP) =  -759.681776648     A.U. after    1 cycles

 The electronic state is 1-A1.
 Alpha  occ. eigenvalues -- -101.77308 -24.78152 -24.69768 -24.69768  -9.69188
 Alpha  occ. eigenvalues --   -7.45607  -7.45400  -7.43769  -1.31881  -1.20217
 Alpha  occ. eigenvalues --   -1.20009  -0.90855  -0.62431  -0.61746  -0.56975
 Alpha  occ. eigenvalues --   -0.51280  -0.46839  -0.44654  -0.44597  -0.42657
 Alpha  occ. eigenvalues --   -0.40450  -0.36005
 Alpha virt. eigenvalues --   -0.16496  -0.07719   0.22790   0.22956   0.25798
 Alpha virt. eigenvalues --    0.33257   0.34116   0.34559   0.35115   0.38884
 Alpha virt. eigenvalues --    0.40548   0.47994   0.50341   0.50613   0.52820

 Mulliken charges:
               1
     1  Cl   0.840734
     2  F   -0.149213
     3  F   -0.345760
     4  F   -0.345760
 Sum of Mulliken charges =   0.00000

 Dipole moment (field-independent basis, Debye):
    X=              0.0000    Y=              0.0000    Z=              0.7675  Tot=              0.7675
 Quadrupole moment (field-independent basis, Debye-Ang):
   XX=            -26.3989   YY=            -33.8907   ZZ=            -25.7948
   XY=             -0.0000   XZ=              0.0000   YZ=             -0.0000

  Exact polarizability:  11.586   0.000  37.827  -0.000   0.000  20.854
 Approx polarizability:  15.887   0.000  68.145   0.000   0.000  33.769

                      1                      2                      3
                     A1                     B1                     B2
 Frequencies --    305.0832               318.3236               411.2092
 Red. masses --     21.4177                24.5948                19.3142
 Frc consts  --      1.1745                 1.4684                 1.9242
 IR Inten    --     14.3454                19.1239                 0.0181

                      4                      5                      6
                     A1                     B2                     A1
 Frequencies --    521.9745               690.7471               746.4005
 Red. masses --     19.0490                25.4243                22.8190
 Frc consts  --      3.0579                 7.1472                 7.4902
 IR Inten    --      4.5260               519.0195                55.8083

 - Thermochemistry -
 -------------------
 Temperature   298.150 Kelvin.  Pressure   1.00000 Atm.
 Atom     1 has atomic number 17 and mass  34.96885

 Molecular mass:    91.96406 amu.
 Principal axes and moments of inertia in atomic units:
                           1         2         3
     Eigenvalues --   135.55152 403.70306 539.25459
           X           -0.00000   0.00000   1.00000
           Y            1.00000   0.00000  -0.00000
           Z           -0.00000   1.00000  -0.00000
 This molecule is an asymmetric top.
 Rotational symmetry number  2.
 Rotational temperatures (Kelvin)      0.63897     0.21455     0.16062
 Rotational constants (GHZ):          13.31406     4.47047     3.34673
 Zero-point vibrational energy      17906.5 (Joules/Mol)
                                    4.27976 (Kcal/Mol)
 Warning -- explicit consideration of   4 degrees of freedom as
           vibrations may cause significant error
 Vibrational temperatures:    438.95   458.00   591.64   751.00   993.83
          (Kelvin)           1073.90

 Zero-point correction=                           0.006820 (Hartree/Particle)
 Thermal correction to Energy=                    0.011183
 Thermal correction to Enthalpy=                  0.012127
 Thermal correction to Gibbs Free Energy=        -0.020083
 Sum of electronic and zero-point Energies=           -759.674956
 Sum of electronic and thermal Energies=              -759.670594
 Sum of electronic and thermal Enthalpies=            -759.669649
 Sum of electronic and thermal Free Energies=         -759.701860

                     E (Thermal)             CV                S
                      KCal/Mol        Cal/Mol-Kelvin    Cal/Mol-Kelvin
 Total                    7.018             13.502             67.792
 Electronic               0.000              0.000              0.000
 Translational            0.889              2.981             39.468
 Rotational               0.889              2.981             23.516
 Vibrational              5.240              7.540              4.808
 Vibration     1          0.696              1.664              1.389
 Vibration     2          0.705              1.639              1.319
 Vibration     3          0.775              1.446              0.922
 Vibration     4          0.877              1.201              0.605

 Optimization completed.
    -- Stationary point found.
 Normal termination of Gaussian 16 at Wed Jun 15 20:56:51 2022.
