 Gaussian 16, Revision B.01,

 ---------------------------------------
 # b3lyp/gen opt freq CPHF(Grid=OneStep)
 ---------------------------------------

 -------------------------------------
 chlorine pentafluoride, B3LYP/pcseg-2
 -------------------------------------
 Symbolic Z-matrix:
 Charge =  0 Multiplicity = 1

 SCF Done:  E(RB3LYP) =  -959.303716068     A.U. after   13 cycles
 Optimization completed.
    -- Stationary point found.
 Normal termination of Gaussian 16 at Sat Sep 30 12:29:05 2023.

 ------------------------------------------------------------------
 #N Geom=AllCheck Guess=TCheck SCRF=Check GenChk RB3LYP/ChkBas Freq
 ------------------------------------------------------------------

 Structure from the checkpoint file:  "clf5.chk"
 -------------------------------------
 chlorine pentafluoride, B3LYP/pcseg-2
 -------------------------------------
 Charge =  0 Multiplicity = 1

 SCF Done:  E(RB3LYP) =  -959.303716068     A.U. after    1 cycles

  Exact polarizability:  37.972   0.000  37.972   0.000   0.000  23.130
 Approx polarizability:  67.812  -0.000  67.812   0.000   0.000  35.471

                      1                      2                      3
                     B2                      E                      E
 Frequencies --    260.0244               284.3430               284.3430
 Red. masses --     18.9984                19.2700                19.2700
 Frc consts  --      0.7568                 0.9179                 0.9179
 IR Inten    --      0.0000                 1.2814                 1.2814

                      4                      5                      6
                     B1                     A1                      E
 Frequencies --    360.3102               463.7468               470.3969
 Red. masses --     18.9984                21.9001                19.2178
 Frc consts  --      1.4532                 2.7750                 2.5054
 IR Inten    --      0.0000                33.0229                 3.4689

                      7                      8                      9
                      E                     B2                     A1
 Frequencies --    470.3969               477.4203               532.1020
 Red. masses --     19.2178                18.9984                19.0024
 Frc consts  --      2.5054                 2.5513                 3.1699
 IR Inten    --      3.4689                 0.0000                 7.1275

                     10                     11                     12
                     A1                      E                      E
 Frequencies --    724.6472               734.5258               734.5258
 Red. masses --     23.7811                27.0759                27.0759
 Frc consts  --      7.3576                 8.6069                 8.6069
 IR Inten    --     87.7314               526.9104               526.9104

 - Thermochemistry -
 -------------------
 Temperature   298.150 Kelvin.  Pressure   1.00000 Atm.
 Atom     1 has atomic number 17 and mass  34.96885

 Molecular mass:   129.96087 amu.
 Principal axes and moments of inertia in atomic units:
                           1         2         3
     Eigenvalues --   525.34468 525.34468 773.29726
           X            0.72828   0.68528   0.00000
           Y           -0.68528   0.72828   0.00000
           Z            0.00000  -0.00000   1.00000
 This molecule is an oblate symmetric top.
 Rotational symmetry number  4.
 Warning -- assumption of classical behavior for rotation
           may cause significant error
 Rotational temperatures (Kelvin)      0.16487     0.16487     0.11201
 Rotational constants (GHZ):           3.43535     3.43535     2.33383
 Zero-point vibrational energy      34672.5 (Joules/Mol)
                                    8.28692 (Kcal/Mol)
 Warning -- explicit consideration of   9 degrees of freedom as
           vibrations may cause significant error
 Vibrational temperatures:    374.12   409.11   409.11   518.41   667.23
          (Kelvin)            676.80   676.80   686.90   765.58  1042.61
                             1056.82  1056.82

 Zero-point correction=                           0.013206 (Hartree/Particle)
 Thermal correction to Energy=                    0.019233
 Thermal correction to Enthalpy=                  0.020177
 Thermal correction to Gibbs Free Energy=        -0.015335
 Sum of electronic and zero-point Energies=           -959.290510
 Sum of electronic and thermal Energies=              -959.284483
 Sum of electronic and thermal Enthalpies=            -959.283539
 Sum of electronic and thermal Free Energies=         -959.319052

                     E (Thermal)             CV                S
                      KCal/Mol        Cal/Mol-Kelvin    Cal/Mol-Kelvin
 Total                   12.069             21.420             74.742
 Electronic               0.000              0.000              0.000
 Translational            0.889              2.981             40.499
 Rotational               0.889              2.981             24.104
 Vibrational             10.291             15.458             10.139
 Vibration     1          0.668              1.746              1.662
 Vibration     2          0.683              1.703              1.507
 Vibration     3          0.683              1.703              1.507
 Vibration     4          0.735              1.554              1.121
 Vibration     5          0.821              1.330              0.755
 Vibration     6          0.827              1.316              0.736
 Vibration     7          0.827              1.316              0.736
 Vibration     8          0.834              1.300              0.717
 Vibration     9          0.887              1.179              0.583

 Optimization completed.
    -- Stationary point found.
 Normal termination of Gaussian 16 at Sat Sep 30 12:30:20 2023.
 Gaussian 16:  ES64L-G16RevB.01 20-Dec-2017

 ---------------------------------
 # rohf/gen geom=check guess=check
 ---------------------------------

 ----------------------------------------
 chlorine pentafluoride, ROHF/cc-pVTZ-F12
 ----------------------------------------
 Structure from the checkpoint file:  "clf5.chk"
 Charge =  0 Multiplicity = 1

                         Standard orientation:
 ---------------------------------------------------------------------
 Center     Atomic      Atomic             Coordinates (Angstroms)
 Number     Number       Type             X           Y           Z
 ---------------------------------------------------------------------
      1         17           0        0.000000    0.000000    0.300998
      2          9           0        0.000000    0.000000   -1.318017
      3          9           0        0.000000    1.688052    0.187366
      4          9           0       -1.688052    0.000000    0.187366
      5          9           0       -0.000000   -1.688052    0.187366
      6          9           0        1.688052   -0.000000    0.187366
 ---------------------------------------------------------------------

 SCF Done:  E(ROHF) =  -956.453816344     A.U. after   12 cycles

 The electronic state is 1-A1.
 Alpha  occ. eigenvalues -- -105.33031 -26.44251 -26.36306 -26.36304 -26.36304
 Alpha  occ. eigenvalues --  -26.36304 -10.99882  -8.46505  -8.46505  -8.46014
 Alpha  occ. eigenvalues --   -1.79383  -1.66343  -1.64879  -1.64879  -1.61193
 Alpha  occ. eigenvalues --   -1.23366  -0.89996  -0.89996  -0.89234  -0.78914
 Alpha  occ. eigenvalues --   -0.78914  -0.76855  -0.69992  -0.69646  -0.69646
 Alpha  occ. eigenvalues --   -0.69151  -0.68550  -0.68550  -0.67027  -0.66411
 Alpha  occ. eigenvalues --   -0.53784
 Alpha virt. eigenvalues --    0.00651   0.06387   0.06387   0.07234   0.08661
 Alpha virt. eigenvalues --    0.10808   0.10808   0.14888   0.15549   0.18026
 Alpha virt. eigenvalues --    0.18026   0.19502   0.23316   0.23316   0.24586

 Mulliken charges and spin densities:
               1          2
     1  Cl   1.756857   0.000000
     2  F   -0.260656   0.000000
     3  F   -0.374050   0.000000
     4  F   -0.374050   0.000000
     5  F   -0.374050   0.000000
     6  F   -0.374050  -0.000000
 Sum of Mulliken charges =  -0.00000   0.00000

 Dipole moment (field-independent basis, Debye):
    X=             -0.0000    Y=             -0.0000    Z=              0.5238  Tot=              0.5238
 Quadrupole moment (field-independent basis, Debye-Ang):
   XX=            -40.6966   YY=            -40.6966   ZZ=            -34.8974
   XY=              0.0000   XZ=              0.0000   YZ=             -0.0000

 Normal termination of Gaussian 16 at Sat Sep 30 12:30:54 2023.
