 Gaussian 16, Revision B.01,
 Gaussian 16:  ES64L-G16RevB.01 20-Dec-2017

 --------------------
 # b3lyp/gen opt freq
 --------------------

 -------------------------------------
 chlorine pentafluoride, B3LYP/pcseg-2
 -------------------------------------
 Symbolic Z-matrix:
 Charge =  0 Multiplicity = 1

 SCF Done:  E(RB3LYP) =  -959.303613427     A.U. after   14 cycles
 SCF Done:  E(RB3LYP) =  -959.303667137     A.U. after    9 cycles
 SCF Done:  E(RB3LYP) =  -959.303709949     A.U. after    8 cycles
 SCF Done:  E(RB3LYP) =  -959.303714773     A.U. after    8 cycles
 SCF Done:  E(RB3LYP) =  -959.303716068     A.U. after    7 cycles
 Optimization completed.
    -- Stationary point found.
 Normal termination of Gaussian 16 at Thu Jun 16 10:42:12 2022.

 ------------------------------------------------------------------
 #N Geom=AllCheck Guess=TCheck SCRF=Check GenChk RB3LYP/ChkBas Freq
 ------------------------------------------------------------------

 Structure from the checkpoint file:  "/wrk/irikura/Gau-8448.chk"
 -------------------------------------
 chlorine pentafluoride, B3LYP/pcseg-2
 -------------------------------------
 Charge =  0 Multiplicity = 1

                         Standard orientation:
 ---------------------------------------------------------------------
 Center     Atomic      Atomic             Coordinates (Angstroms)
 Number     Number       Type             X           Y           Z
 ---------------------------------------------------------------------
      1         17           0        0.000000    0.000000    0.300998
      2          9           0        0.000000    0.000000   -1.318017
      3          9           0        0.000000    1.688052    0.187366
      4          9           0       -1.688052    0.000000    0.187366
      5          9           0       -0.000000   -1.688052    0.187366
      6          9           0        1.688052   -0.000000    0.187366
 ---------------------------------------------------------------------

 SCF Done:  E(RB3LYP) =  -959.303716068     A.U. after    1 cycles

 The electronic state is 1-A1.
 Alpha  occ. eigenvalues -- -101.93906 -24.79591 -24.73841 -24.73841 -24.73841
 Alpha  occ. eigenvalues --  -24.73840  -9.83216  -7.59369  -7.59369  -7.58662
 Alpha  occ. eigenvalues --   -1.38970  -1.25989  -1.25102  -1.25102  -1.21429
 Alpha  occ. eigenvalues --   -0.94833  -0.68399  -0.68399  -0.68136  -0.54488
 Alpha  occ. eigenvalues --   -0.54488  -0.52976  -0.51074  -0.48999  -0.46702
 Alpha  occ. eigenvalues --   -0.46702  -0.46563  -0.45735  -0.45735  -0.43556
 Alpha  occ. eigenvalues --   -0.39666
 Alpha virt. eigenvalues --   -0.17418  -0.10596  -0.10596   0.19308   0.20760
 Alpha virt. eigenvalues --    0.20760   0.29753   0.30238   0.30240   0.30240
 Alpha virt. eigenvalues --    0.36695   0.38284   0.45538   0.46057   0.46057

 Mulliken charges:
               1
     1  Cl   1.177686
     2  F   -0.118560
     3  F   -0.264782
     4  F   -0.264782
     5  F   -0.264782
     6  F   -0.264782
 Sum of Mulliken charges =  -0.00000

 Dipole moment (field-independent basis, Debye):
    X=             -0.0000    Y=              0.0000    Z=              0.6730  Tot=              0.6730
 Quadrupole moment (field-independent basis, Debye-Ang):
   XX=            -40.7873   YY=            -40.7873   ZZ=            -35.5432
   XY=              0.0000   XZ=             -0.0000   YZ=             -0.0000

  Exact polarizability:  37.971   0.000  37.971  -0.000   0.000  23.130
 Approx polarizability:  67.812  -0.000  67.812   0.000  -0.000  35.471

                      1                      2                      3
                     B2                      E                      E
 Frequencies --    260.0235               284.3440               284.3440
 Red. masses --     18.9984                19.2701                19.2701
 Frc consts  --      0.7568                 0.9180                 0.9180
 IR Inten    --      0.0000                 1.2807                 1.2807

                      4                      5                      6
                     B1                     A1                      E
 Frequencies --    360.3105               463.7358               470.3971
 Red. masses --     18.9984                21.9002                19.2178
 Frc consts  --      1.4532                 2.7748                 2.5054
 IR Inten    --      0.0000                33.0282                 3.4694

                      7                      8                      9
                      E                     B2                     A1
 Frequencies --    470.3971               477.4258               532.0865
 Red. masses --     19.2178                18.9984                19.0024
 Frc consts  --      2.5054                 2.5514                 3.1697
 IR Inten    --      3.4694                 0.0000                 7.1229

                     10                     11                     12
                     A1                      E                      E
 Frequencies --    724.6398               734.5353               734.5353
 Red. masses --     23.7810                27.0759                27.0759
 Frc consts  --      7.3574                 8.6071                 8.6071
 IR Inten    --     87.7131               526.8759               526.8759

 - Thermochemistry -
 -------------------
 Temperature   298.150 Kelvin.  Pressure   1.00000 Atm.
 Atom     1 has atomic number 17 and mass  34.96885

 Molecular mass:   129.96087 amu.
 Principal axes and moments of inertia in atomic units:
                           1         2         3
     Eigenvalues --   525.34464 525.34464 773.29720
           X            0.72828   0.68528   0.00000
           Y           -0.68528   0.72828   0.00000
           Z            0.00000  -0.00000   1.00000
 This molecule is an oblate symmetric top.
 Rotational symmetry number  4.
 Warning -- assumption of classical behavior for rotation
           may cause significant error
 Rotational temperatures (Kelvin)      0.16487     0.16487     0.11201
 Rotational constants (GHZ):           3.43535     3.43535     2.33383
 Zero-point vibrational energy      34672.4 (Joules/Mol)
                                    8.28691 (Kcal/Mol)
 Warning -- explicit consideration of   9 degrees of freedom as
           vibrations may cause significant error
 Vibrational temperatures:    374.12   409.11   409.11   518.41   667.21
          (Kelvin)            676.80   676.80   686.91   765.55  1042.60
                             1056.83  1056.83

 Zero-point correction=                           0.013206 (Hartree/Particle)
 Thermal correction to Energy=                    0.019233
 Thermal correction to Enthalpy=                  0.020177
 Thermal correction to Gibbs Free Energy=        -0.015336
 Sum of electronic and zero-point Energies=           -959.290510
 Sum of electronic and thermal Energies=              -959.284484
 Sum of electronic and thermal Enthalpies=            -959.283539
 Sum of electronic and thermal Free Energies=         -959.319052

                     E (Thermal)             CV                S
                      KCal/Mol        Cal/Mol-Kelvin    Cal/Mol-Kelvin
 Total                   12.069             21.420             74.742
 Electronic               0.000              0.000              0.000
 Translational            0.889              2.981             40.499
 Rotational               0.889              2.981             24.104
 Vibrational             10.291             15.458             10.139
 Vibration     1          0.668              1.746              1.662
 Vibration     2          0.683              1.703              1.507
 Vibration     3          0.683              1.703              1.507
 Vibration     4          0.735              1.554              1.121
 Vibration     5          0.821              1.330              0.755
 Vibration     6          0.827              1.316              0.736
 Vibration     7          0.827              1.316              0.736
 Vibration     8          0.834              1.300              0.717
 Vibration     9          0.887              1.179              0.583

 Optimization completed.
    -- Stationary point found.
 Normal termination of Gaussian 16 at Thu Jun 16 10:42:35 2022.
