 Gaussian 16, Revision B.01,
 Gaussian 16:  ES64L-G16RevB.01 20-Dec-2017

 --------------------
 # b3lyp/gen opt freq
 --------------------

 ---------------------------
 ClF geom opt, B3LYP/pcseg-2
 ---------------------------
 Symbolic Z-matrix:
 Charge =  0 Multiplicity = 1

 SCF Done:  E(RB3LYP) =  -560.039764945     A.U. after   12 cycles
 SCF Done:  E(RB3LYP) =  -560.041036649     A.U. after   11 cycles
 SCF Done:  E(RB3LYP) =  -560.041184412     A.U. after    8 cycles
 Optimization completed.
    -- Stationary point found.
 Normal termination of Gaussian 16 at Thu Feb 24 14:33:57 2022.

 ------------------------------------------------------------------
 #N Geom=AllCheck Guess=TCheck SCRF=Check GenChk RB3LYP/ChkBas Freq
 ------------------------------------------------------------------

 Structure from the checkpoint file:  "/wrk/irikura/Gau-17391.chk"
 ---------------------------
 ClF geom opt, B3LYP/pcseg-2
 ---------------------------
 Charge =  0 Multiplicity = 1

                         Standard orientation:
 ---------------------------------------------------------------------
 Center     Atomic      Atomic             Coordinates (Angstroms)
 Number     Number       Type             X           Y           Z
 ---------------------------------------------------------------------
      1         17           0        0.000000    0.000000    0.569319
      2          9           0        0.000000    0.000000   -1.075380
 ---------------------------------------------------------------------

 SCF Done:  E(RB3LYP) =  -560.041184412     A.U. after    1 cycles

 The electronic state is 1-SG.
 Alpha  occ. eigenvalues -- -101.60160 -24.73680  -9.54005  -7.30807  -7.29009
 Alpha  occ. eigenvalues --   -7.29009  -1.24457  -0.84286  -0.54374  -0.49416
 Alpha  occ. eigenvalues --   -0.49416  -0.34057  -0.34057
 Alpha virt. eigenvalues --   -0.13211   0.26459   0.29104   0.29104   0.40369
 Alpha virt. eigenvalues --    0.40369   0.40494   0.46706   0.51674   0.51674
 Alpha virt. eigenvalues --    0.58896   0.58896   0.63912   0.92518   1.67445

 Mulliken charges:
               1
     1  Cl   0.206685
     2  F   -0.206685
 Sum of Mulliken charges =   0.00000

 Dipole moment (field-independent basis, Debye):
    X=              0.0000    Y=              0.0000    Z=              1.0622  Tot=              1.0622
 Quadrupole moment (field-independent basis, Debye-Ang):
   XX=            -17.5296   YY=            -17.5296   ZZ=            -16.2053
   XY=              0.0000   XZ=              0.0000   YZ=              0.0000

  Exact polarizability:   8.047   0.000   8.047  -0.000   0.000  18.815
 Approx polarizability:  11.144  -0.000  11.144  -0.000  -0.000  31.871

                      1
                     SG
 Frequencies --    784.1997
 Red. masses --     22.6381
 Frc consts  --      8.2024
 IR Inten    --     29.7208

 - Thermochemistry -
 -------------------
 Temperature   298.150 Kelvin.  Pressure   1.00000 Atm.
 Atom     1 has atomic number 17 and mass  34.96885

 Molecular mass:    53.96726 amu.
 Principal axes and moments of inertia in atomic units:
                           1         2         3
     Eigenvalues --     0.00000 118.91566 118.91566
           X            0.00000  -0.00000   1.00000
           Y            0.00000   1.00000   0.00000
           Z            1.00000   0.00000   0.00000
 This molecule is a prolate symmetric top.
 Rotational symmetry number  1.
 Rotational temperature (Kelvin)      0.72836
 Rotational constant (GHZ):          15.176649
 Zero-point vibrational energy       4690.6 (Joules/Mol)
                                    1.12107 (Kcal/Mol)
 Vibrational temperatures:   1128.29
          (Kelvin)

 Zero-point correction=                           0.001787 (Hartree/Particle)
 Thermal correction to Energy=                    0.004230
 Thermal correction to Enthalpy=                  0.005174
 Thermal correction to Gibbs Free Energy=        -0.019551
 Sum of electronic and zero-point Energies=           -560.039398
 Sum of electronic and thermal Energies=              -560.036954
 Sum of electronic and thermal Enthalpies=            -560.036010
 Sum of electronic and thermal Free Energies=         -560.060736

                     E (Thermal)             CV                S
                      KCal/Mol        Cal/Mol-Kelvin    Cal/Mol-Kelvin
 Total                    2.654              5.645             52.039
 Electronic               0.000              0.000              0.000
 Translational            0.889              2.981             37.879
 Rotational               0.592              1.987             13.939
 Vibrational              1.173              0.677              0.221

 Optimization completed.
    -- Stationary point found.
 Normal termination of Gaussian 16 at Thu Feb 24 14:34:04 2022.
