 Gaussian 16, Revision B.01,
 Gaussian 16:  ES64L-G16RevB.01 20-Dec-2017

 --------------------
 # b3lyp/gen opt freq
 --------------------

 --------------------------------
 nitrosyl chloride, B3LYP/pcseg-2
 --------------------------------
 Symbolic Z-matrix:
 Charge =  0 Multiplicity = 1

 SCF Done:  E(RB3LYP) =  -590.182785635     A.U. after   16 cycles
 SCF Done:  E(RB3LYP) =  -590.183091530     A.U. after   12 cycles
 SCF Done:  E(RB3LYP) =  -590.183189921     A.U. after   11 cycles
 SCF Done:  E(RB3LYP) =  -590.183197732     A.U. after    9 cycles
 SCF Done:  E(RB3LYP) =  -590.183198867     A.U. after    8 cycles
 Optimization completed.
    -- Stationary point found.
 Normal termination of Gaussian 16 at Thu Jun 16 17:11:35 2022.

 ------------------------------------------------------------------
 #N Geom=AllCheck Guess=TCheck SCRF=Check GenChk RB3LYP/ChkBas Freq
 ------------------------------------------------------------------

 Structure from the checkpoint file:  "/wrk/irikura/Gau-11745.chk"
 --------------------------------
 nitrosyl chloride, B3LYP/pcseg-2
 --------------------------------
 Charge =  0 Multiplicity = 1

                         Standard orientation:
 ---------------------------------------------------------------------
 Center     Atomic      Atomic             Coordinates (Angstroms)
 Number     Number       Type             X           Y           Z
 ---------------------------------------------------------------------
      1         17           0       -0.524782   -0.944467    0.000000
      2          7           0       -0.000000    0.977495    0.000000
      3          8           0        1.115163    1.151683    0.000000
 ---------------------------------------------------------------------

 SCF Done:  E(RB3LYP) =  -590.183198867     A.U. after    1 cycles

 The electronic state is 1-A'.
 Alpha  occ. eigenvalues -- -101.50724 -19.30931 -14.55639  -9.45160  -7.21200
 Alpha  occ. eigenvalues --   -7.20585  -7.20408  -1.32282  -0.82994  -0.71534
 Alpha  occ. eigenvalues --   -0.58006  -0.57808  -0.55346  -0.32618  -0.32058
 Alpha  occ. eigenvalues --   -0.31086
 Alpha virt. eigenvalues --   -0.15223  -0.09743   0.12828   0.21133   0.22088
 Alpha virt. eigenvalues --    0.24549   0.28490   0.31471   0.33536   0.33785
 Alpha virt. eigenvalues --    0.35812   0.37245   0.47521   0.55763   0.56362

 Mulliken charges:
               1
     1  Cl  -0.204602
     2  N    0.194886
     3  O    0.009716
 Sum of Mulliken charges =  -0.00000

 Dipole moment (field-independent basis, Debye):
    X=              0.9619    Y=              1.7973    Z=              0.0000  Tot=              2.0385
 Quadrupole moment (field-independent basis, Debye-Ang):
   XX=            -24.0749   YY=            -22.8790   ZZ=            -22.6555
   XY=              0.2546   XZ=              0.0000   YZ=              0.0000

  Exact polarizability:  23.725  13.587  42.729   0.000   0.000  13.368
 Approx polarizability:  48.327  38.083  97.275  -0.000  -0.000  19.891

                      1                      2                      3
                     A'                     A'                     A'
 Frequencies --    334.2116               612.5904              1911.5936
 Red. masses --     20.4127                14.9467                14.9017
 Frc consts  --      1.3434                 3.3047                32.0832
 IR Inten    --     83.5139               109.5468               666.7454

 - Thermochemistry -
 -------------------
 Temperature   298.150 Kelvin.  Pressure   1.00000 Atm.
 Atom     1 has atomic number 17 and mass  34.96885

 Molecular mass:    64.96684 amu.
 Principal axes and moments of inertia in atomic units:
                           1         2         3
     Eigenvalues --    20.22325 320.07174 340.29499
           X            0.53300   0.84611   0.00000
           Y            0.84611  -0.53300   0.00000
           Z            0.00000  -0.00000   1.00000
 This molecule is an asymmetric top.
 Rotational symmetry number  1.
 Rotational temperatures (Kelvin)      4.28289     0.27061     0.25453
 Rotational constants (GHZ):          89.24089     5.63855     5.30346
 Zero-point vibrational energy      17097.0 (Joules/Mol)
                                    4.08628 (Kcal/Mol)
 Warning -- explicit consideration of   2 degrees of freedom as
           vibrations may cause significant error
 Vibrational temperatures:    480.86   881.38  2750.36
          (Kelvin)

 Zero-point correction=                           0.006512 (Hartree/Particle)
 Thermal correction to Energy=                    0.009878
 Thermal correction to Enthalpy=                  0.010822
 Thermal correction to Gibbs Free Energy=        -0.018835
 Sum of electronic and zero-point Energies=           -590.176687
 Sum of electronic and thermal Energies=              -590.173321
 Sum of electronic and thermal Enthalpies=            -590.172377
 Sum of electronic and thermal Free Energies=         -590.202034

                     E (Thermal)             CV                S
                      KCal/Mol        Cal/Mol-Kelvin    Cal/Mol-Kelvin
 Total                    6.198              8.591             62.417
 Electronic               0.000              0.000              0.000
 Translational            0.889              2.981             38.432
 Rotational               0.889              2.981             22.315
 Vibrational              4.421              2.629              1.670
 Vibration     1          0.716              1.607              1.240
 Vibration     2          0.972              1.005              0.429

 Optimization completed.
    -- Stationary point found.
 Normal termination of Gaussian 16 at Thu Jun 16 17:11:44 2022.
