 Gaussian 16, Revision B.01,
 Gaussian 16:  ES64L-G16RevB.01 20-Dec-2017

 --------------------
 # b3lyp/gen opt freq
 --------------------

 ------------------
 ClO, B3LYP/pcseg-2
 ------------------
 Symbolic Z-matrix:
 Charge =  0 Multiplicity = 2

 SCF Done:  E(UB3LYP) =  -535.370367978     A.U. after   14 cycles
 SCF Done:  E(UB3LYP) =  -535.374101277     A.U. after   13 cycles
 SCF Done:  E(UB3LYP) =  -535.375198838     A.U. after   13 cycles
 SCF Done:  E(UB3LYP) =  -535.375199201     A.U. after    8 cycles
 Optimization completed.
    -- Stationary point found.
 Normal termination of Gaussian 16 at Wed Jun 15 11:01:54 2022.

 ------------------------------------------------------------------
 #N Geom=AllCheck Guess=TCheck SCRF=Check GenChk UB3LYP/ChkBas Freq
 ------------------------------------------------------------------

 Structure from the checkpoint file:  "/wrk/irikura/Gau-7076.chk"
 ------------------
 ClO, B3LYP/pcseg-2
 ------------------
 Charge =  0 Multiplicity = 2

                         Standard orientation:
 ---------------------------------------------------------------------
 Center     Atomic      Atomic             Coordinates (Angstroms)
 Number     Number       Type             X           Y           Z
 ---------------------------------------------------------------------
      1         17           0        0.000000    0.000000    0.507894
      2          8           0        0.000000    0.000000   -1.079274
 ---------------------------------------------------------------------

 SCF Done:  E(UB3LYP) =  -535.375199201     A.U. after    1 cycles

 Unable to determine electronic state:  an orbital has unidentified symmetry.
 Alpha  occ. eigenvalues -- -101.60704 -19.22887  -9.54629  -7.30890  -7.30398
 Alpha  occ. eigenvalues --   -7.29583  -1.09970  -0.80191  -0.49604  -0.48872
 Alpha  occ. eigenvalues --   -0.45187  -0.33687  -0.29889
 Alpha virt. eigenvalues --   -0.05903   0.26271   0.27421   0.28452   0.32250
 Alpha virt. eigenvalues --    0.33657   0.35476   0.37134   0.49303   0.49306
 Alpha virt. eigenvalues --    0.52850   0.54438   0.64725   0.91480   1.39627

  Beta  occ. eigenvalues -- -101.60482 -19.20808  -9.54421  -7.30822  -7.29635
  Beta  occ. eigenvalues --   -7.29461  -1.06446  -0.76991  -0.47807  -0.44226
  Beta  occ. eigenvalues --   -0.41671  -0.28505
  Beta virt. eigenvalues --   -0.18201  -0.04626   0.26676   0.28334   0.28563
  Beta virt. eigenvalues --    0.32763   0.35939   0.37271   0.37665   0.50976
  Beta virt. eigenvalues --    0.51023   0.54469   0.54637   0.65784   0.92405

 Mulliken charges and spin densities:
               1          2
     1  Cl   0.236815   0.279444
     2  O   -0.236815   0.720556
 Sum of Mulliken charges =   0.00000   1.00000

 Dipole moment (field-independent basis, Debye):
    X=              0.0000    Y=              0.0000    Z=              1.4577  Tot=              1.4577
 Quadrupole moment (field-independent basis, Debye-Ang):
   XX=            -16.8983   YY=            -18.2505   ZZ=            -17.6568
   XY=              0.0000   XZ=              0.0000   YZ=              0.0000

  Exact polarizability:   9.078   0.000   9.067   0.000   0.000  25.319
 Approx polarizability:  13.252  -0.000  12.248  -0.000  -0.000  46.586

                      1
                     SG
 Frequencies --    850.6275
 Red. masses --     19.2778
 Frc consts  --      8.2184
 IR Inten    --      5.1828

 - Thermochemistry -
 -------------------
 Temperature   298.150 Kelvin.  Pressure   1.00000 Atm.
 Atom     1 has atomic number 17 and mass  34.96885

 Molecular mass:    50.96377 amu.
 Principal axes and moments of inertia in atomic units:
                           1         2         3
     Eigenvalues --     0.00000  98.72911  98.72911
           X            0.00000  -0.00000   1.00000
           Y            0.00000   1.00000   0.00000
           Z            1.00000   0.00000   0.00000
 This molecule is a prolate symmetric top.
 Rotational symmetry number  1.
 Rotational temperature (Kelvin)      0.87729
 Rotational constant (GHZ):          18.279727
 Zero-point vibrational energy       5087.9 (Joules/Mol)
                                    1.21603 (Kcal/Mol)
 Vibrational temperatures:   1223.86
          (Kelvin)

 Zero-point correction=                           0.001938 (Hartree/Particle)
 Thermal correction to Energy=                    0.004363
 Thermal correction to Enthalpy=                  0.005308
 Thermal correction to Gibbs Free Energy=        -0.019792
 Sum of electronic and zero-point Energies=           -535.373261
 Sum of electronic and thermal Energies=              -535.370836
 Sum of electronic and thermal Enthalpies=            -535.369892
 Sum of electronic and thermal Free Energies=         -535.394991

                     E (Thermal)             CV                S
                      KCal/Mol        Cal/Mol-Kelvin    Cal/Mol-Kelvin
 Total                    2.738              5.539             52.826
 Electronic               0.000              0.000              1.377
 Translational            0.889              2.981             37.709
 Rotational               0.592              1.987             13.570
 Vibrational              1.257              0.571              0.170

 Optimization completed.
    -- Stationary point found.
 Normal termination of Gaussian 16 at Wed Jun 15 11:02:00 2022.
