 Gaussian 16, Revision B.01,

 ---------------------------------------
 # b3lyp/gen opt freq CPHF(Grid=OneStep)
 ---------------------------------------

 --------------------------------
 chlorine trioxide, B3LYP/pcseg-2
 --------------------------------
 Symbolic Z-matrix:
 Charge =  0 Multiplicity = 2

 SCF Done:  E(UB3LYP) =  -685.705739164     A.U. after   13 cycles
 Optimization completed.
    -- Stationary point found.
 Normal termination of Gaussian 16 at Sat Sep 30 21:18:13 2023.

 ------------------------------------------------------------------
 #N Geom=AllCheck Guess=TCheck SCRF=Check GenChk UB3LYP/ChkBas Freq
 ------------------------------------------------------------------

 Structure from the checkpoint file:  "clo3.chk"
 --------------------------------
 chlorine trioxide, B3LYP/pcseg-2
 --------------------------------
 Charge =  0 Multiplicity = 2

 SCF Done:  E(UB3LYP) =  -685.705739164     A.U. after    1 cycles

  Exact polarizability:  34.108  -0.000  34.108   0.000   0.000  16.176
 Approx polarizability:  65.363  -0.000  65.363   0.000   0.000  24.500

                      1                      2                      3
                      E                      E                     A1
 Frequencies --    466.9259               466.9264               554.1838
 Red. masses --     17.1831                17.1831                21.2958
 Frc consts  --      2.2072                 2.2072                 3.8535
 IR Inten    --     14.5250                14.5240                24.2599

                      4                      5                      6
                     A1                      E                      E
 Frequencies --    903.5331              1043.7830              1043.7843
 Red. masses --     17.1059                20.7079                20.7079
 Frc consts  --      8.2278                13.2925                13.2925
 IR Inten    --      4.8280               121.2381               121.2292

 - Thermochemistry -
 -------------------
 Temperature   298.150 Kelvin.  Pressure   1.00000 Atm.
 Atom     1 has atomic number 17 and mass  34.96885

 Molecular mass:    82.95360 amu.
 Principal axes and moments of inertia in atomic units:
                           1         2         3
     Eigenvalues --   181.94510 181.94510 344.03887
           X            0.00000   1.00000   0.00000
           Y            1.00000  -0.00000   0.00000
           Z           -0.00000  -0.00000   1.00000
 This molecule is an oblate symmetric top.
 Rotational symmetry number  3.
 Rotational temperatures (Kelvin)      0.47604     0.47604     0.25176
 Rotational constants (GHZ):           9.91915     9.91915     5.24575
 Zero-point vibrational energy      26791.2 (Joules/Mol)
                                    6.40325 (Kcal/Mol)
 Warning -- explicit consideration of   3 degrees of freedom as
           vibrations may cause significant error
 Vibrational temperatures:    671.80   671.80   797.35  1299.98  1501.77
          (Kelvin)           1501.77

 Zero-point correction=                           0.010204 (Hartree/Particle)
 Thermal correction to Energy=                    0.013839
 Thermal correction to Enthalpy=                  0.014783
 Thermal correction to Gibbs Free Energy=        -0.015922
 Sum of electronic and zero-point Energies=           -685.695535
 Sum of electronic and thermal Energies=              -685.691900
 Sum of electronic and thermal Enthalpies=            -685.690956
 Sum of electronic and thermal Free Energies=         -685.721662

                     E (Thermal)             CV                S
                      KCal/Mol        Cal/Mol-Kelvin    Cal/Mol-Kelvin
 Total                    8.684             10.898             64.625
 Electronic               0.000              0.000              1.377
 Translational            0.889              2.981             39.161
 Rotational               0.889              2.981             21.764
 Vibrational              6.906              4.936              2.322
 Vibration     1          0.824              1.323              0.746
 Vibration     2          0.824              1.323              0.746
 Vibration     3          0.910              1.131              0.536

 Optimization completed.
    -- Stationary point found.
 Normal termination of Gaussian 16 at Sat Sep 30 21:19:09 2023.
 Gaussian 16:  ES64L-G16RevB.01 20-Dec-2017

 ---------------------------------
 # rohf/gen geom=check guess=check
 ---------------------------------

 -----------------------------------
 chlorine trioxide, ROHF/cc-pVTZ-F12
 -----------------------------------
 Structure from the checkpoint file:  "clo3.chk"
 Charge =  0 Multiplicity = 2

                         Standard orientation:
 ---------------------------------------------------------------------
 Center     Atomic      Atomic             Coordinates (Angstroms)
 Number     Number       Type             X           Y           Z
 ---------------------------------------------------------------------
      1         17           0        0.000000    0.000000    0.216987
      2          8           0        0.000000    1.416946   -0.153699
      3          8           0        1.227111   -0.708473   -0.153699
      4          8           0       -1.227111   -0.708473   -0.153699
 ---------------------------------------------------------------------

 SCF Done:  E(ROHF) =  -683.862611917     A.U. after   14 cycles

 The electronic state is 2-A1.
 Alpha  occ. eigenvalues -- -105.22817 -20.66733 -20.66733 -20.66728 -10.90917
 Alpha  occ. eigenvalues --   -8.37867  -8.37867  -8.37639  -1.65279  -1.44132
 Alpha  occ. eigenvalues --   -1.44132  -0.97417  -0.79948  -0.78050  -0.78050
 Alpha  occ. eigenvalues --   -0.61412  -0.61412  -0.56137  -0.56137  -0.53878
 Alpha  occ. eigenvalues --   -0.19670
 Alpha virt. eigenvalues --    0.05949   0.07521   0.07878   0.07878   0.14726
 Alpha virt. eigenvalues --    0.14726   0.15947   0.15947   0.16143   0.18708
 Alpha virt. eigenvalues --    0.20706   0.20706   0.20927   0.21362   0.22757

 Mulliken charges and spin densities:
               1          2
     1  Cl   1.456252   0.499208
     2  O   -0.485417   0.166931
     3  O   -0.485417   0.166931
     4  O   -0.485417   0.166931
 Sum of Mulliken charges =  -0.00000   1.00000

 Dipole moment (field-independent basis, Debye):
    X=             -0.0000    Y=             -0.0000    Z=              1.3592  Tot=              1.3592
 Quadrupole moment (field-independent basis, Debye-Ang):
   XX=            -31.2279   YY=            -31.2279   ZZ=            -26.0958
   XY=              0.0000   XZ=              0.0000   YZ=             -0.0000

 Normal termination of Gaussian 16 at Sat Sep 30 21:19:26 2023.
