 Gaussian 16, Revision B.01,
 Gaussian 16:  ES64L-G16RevB.01 20-Dec-2017

 --------------------
 # b3lyp/gen opt freq
 --------------------

 --------------------------------
 chlorine trioxide, B3LYP/pcseg-2
 --------------------------------
 Symbolic Z-matrix:
 Charge =  0 Multiplicity = 2

 SCF Done:  E(UB3LYP) =  -685.705502386     A.U. after   13 cycles
 SCF Done:  E(UB3LYP) =  -685.705544108     A.U. after   11 cycles
 SCF Done:  E(UB3LYP) =  -685.705729621     A.U. after   10 cycles
 SCF Done:  E(UB3LYP) =  -685.705739164     A.U. after    8 cycles
 Optimization completed.
    -- Stationary point found.
 Normal termination of Gaussian 16 at Thu Jun 16 13:38:30 2022.

 ------------------------------------------------------------------
 #N Geom=AllCheck Guess=TCheck SCRF=Check GenChk UB3LYP/ChkBas Freq
 ------------------------------------------------------------------

 Structure from the checkpoint file:  "/wrk/irikura/Gau-20183.chk"
 --------------------------------
 chlorine trioxide, B3LYP/pcseg-2
 --------------------------------
 Charge =  0 Multiplicity = 2

                         Standard orientation:
 ---------------------------------------------------------------------
 Center     Atomic      Atomic             Coordinates (Angstroms)
 Number     Number       Type             X           Y           Z
 ---------------------------------------------------------------------
      1         17           0        0.000000    0.000000    0.216987
      2          8           0        0.000000    1.416946   -0.153699
      3          8           0        1.227111   -0.708473   -0.153699
      4          8           0       -1.227111   -0.708473   -0.153699
 ---------------------------------------------------------------------

 SCF Done:  E(UB3LYP) =  -685.705739164     A.U. after    1 cycles

 The electronic state is 2-A1.
 Alpha  occ. eigenvalues -- -101.85625 -19.22736 -19.22736 -19.22735  -9.75996
 Alpha  occ. eigenvalues --   -7.52020  -7.52020  -7.51877  -1.30588  -1.11715
 Alpha  occ. eigenvalues --   -1.11715  -0.75204  -0.62450  -0.59340  -0.59340
 Alpha  occ. eigenvalues --   -0.45119  -0.45119  -0.41493  -0.41493  -0.36458
 Alpha  occ. eigenvalues --   -0.34348
 Alpha virt. eigenvalues --   -0.02946   0.01001   0.01001   0.18964   0.24188
 Alpha virt. eigenvalues --    0.24188   0.25396   0.30771   0.30771   0.31028
 Alpha virt. eigenvalues --    0.32356   0.32356   0.39267   0.41292   0.41292

  Beta  occ. eigenvalues -- -101.85424 -19.21965 -19.21965 -19.21963  -9.75770
  Beta  occ. eigenvalues --   -7.51934  -7.51934  -7.51232  -1.29431  -1.10030
  Beta  occ. eigenvalues --   -1.10030  -0.72223  -0.60347  -0.57906  -0.57906
  Beta  occ. eigenvalues --   -0.43369  -0.43369  -0.39066  -0.39066  -0.35742
  Beta virt. eigenvalues --   -0.22764  -0.02408   0.02698   0.02698   0.19381
  Beta virt. eigenvalues --    0.24397   0.24397   0.26225   0.31251   0.31251
  Beta virt. eigenvalues --    0.31528   0.32807   0.32807   0.40258   0.41802

 Mulliken charges and spin densities:
               1          2
     1  Cl   0.949285   0.203564
     2  O   -0.316428   0.265479
     3  O   -0.316428   0.265479
     4  O   -0.316428   0.265479
 Sum of Mulliken charges =  -0.00000   1.00000

 Dipole moment (field-independent basis, Debye):
    X=             -0.0000    Y=             -0.0000    Z=              1.0741  Tot=              1.0741
 Quadrupole moment (field-independent basis, Debye-Ang):
   XX=            -31.1767   YY=            -31.1767   ZZ=            -26.2099
   XY=              0.0000   XZ=              0.0000   YZ=              0.0000

  Exact polarizability:  34.109   0.000  34.108   0.000  -0.000  16.176
 Approx polarizability:  65.363  -0.000  65.363   0.000   0.000  24.500

                      1                      2                      3
                      E                      E                     A1
 Frequencies --    466.9258               466.9261               554.1829
 Red. masses --     17.1832                17.1831                21.2958
 Frc consts  --      2.2072                 2.2072                 3.8535
 IR Inten    --     14.5263                14.5258                24.2591

                      4                      5                      6
                     A1                      E                      E
 Frequencies --    903.5405              1043.7867              1043.7898
 Red. masses --     17.1059                20.7079                20.7079
 Frc consts  --      8.2280                13.2926                13.2927
 IR Inten    --      4.8282               121.2335               121.2216

 - Thermochemistry -
 -------------------
 Temperature   298.150 Kelvin.  Pressure   1.00000 Atm.
 Atom     1 has atomic number 17 and mass  34.96885

 Molecular mass:    82.95360 amu.
 Principal axes and moments of inertia in atomic units:
                           1         2         3
     Eigenvalues --   181.94510 181.94510 344.03886
           X           -0.48829   0.87268   0.00000
           Y            0.87268   0.48829   0.00000
           Z            0.00000  -0.00000   1.00000
 This molecule is an oblate symmetric top.
 Rotational symmetry number  3.
 Rotational temperatures (Kelvin)      0.47604     0.47604     0.25176
 Rotational constants (GHZ):           9.91915     9.91915     5.24575
 Zero-point vibrational energy      26791.3 (Joules/Mol)
                                    6.40327 (Kcal/Mol)
 Warning -- explicit consideration of   3 degrees of freedom as
           vibrations may cause significant error
 Vibrational temperatures:    671.80   671.80   797.35  1299.99  1501.78
          (Kelvin)           1501.78

 Zero-point correction=                           0.010204 (Hartree/Particle)
 Thermal correction to Energy=                    0.013839
 Thermal correction to Enthalpy=                  0.014783
 Thermal correction to Gibbs Free Energy=        -0.015922
 Sum of electronic and zero-point Energies=           -685.695535
 Sum of electronic and thermal Energies=              -685.691900
 Sum of electronic and thermal Enthalpies=            -685.690956
 Sum of electronic and thermal Free Energies=         -685.721661

                     E (Thermal)             CV                S
                      KCal/Mol        Cal/Mol-Kelvin    Cal/Mol-Kelvin
 Total                    8.684             10.898             64.625
 Electronic               0.000              0.000              1.377
 Translational            0.889              2.981             39.161
 Rotational               0.889              2.981             21.764
 Vibrational              6.906              4.936              2.322
 Vibration     1          0.824              1.323              0.746
 Vibration     2          0.824              1.323              0.746
 Vibration     3          0.910              1.131              0.536

 Optimization completed.
    -- Stationary point found.
 Normal termination of Gaussian 16 at Thu Jun 16 13:38:47 2022.
