 Gaussian 16, Revision B.01,
 Gaussian 16:  ES64L-G16RevB.01 20-Dec-2017

 ----------------------------
 # b3lyp/gen opt freq scf=xqc
 ----------------------------

 ----------------------------
 chloroperoxyl, B3LYP/pcseg-2
 ----------------------------
 Symbolic Z-matrix:
 Charge =  0 Multiplicity = 2

 SCF Done:  E(UB3LYP) =  -610.559058706     A.U. after   25 cycles
 SCF Done:  E(UB3LYP) =  -610.562730312     A.U. after   33 cycles
 SCF Done:  E(UB3LYP) =  -610.569945139     a.u. after    7 cycles
 SCF Done:  E(UB3LYP) =  -610.570034707     A.U. after   13 cycles
 SCF Done:  E(UB3LYP) =  -610.570086964     A.U. after   14 cycles
 SCF Done:  E(UB3LYP) =  -610.570204490     A.U. after   17 cycles
 SCF Done:  E(UB3LYP) =  -610.570338031     A.U. after   18 cycles
 SCF Done:  E(UB3LYP) =  -610.570374092     A.U. after   18 cycles
 SCF Done:  E(UB3LYP) =  -610.570391622     A.U. after   14 cycles
 SCF Done:  E(UB3LYP) =  -610.570395178     A.U. after   13 cycles
 SCF Done:  E(UB3LYP) =  -610.570395426     A.U. after   13 cycles
 Optimization completed.
    -- Stationary point found.
 Normal termination of Gaussian 16 at Sat Jun 18 12:24:28 2022.

 ------------------------------------------------------------------
 #N Geom=AllCheck Guess=TCheck SCRF=Check GenChk UB3LYP/ChkBas Freq
 ------------------------------------------------------------------

 Structure from the checkpoint file:  "/wrk/irikura/Gau-4387.chk"
 ----------------------------
 chloroperoxyl, B3LYP/pcseg-2
 ----------------------------
 Charge =  0 Multiplicity = 2

                         Standard orientation:
 ---------------------------------------------------------------------
 Center     Atomic      Atomic             Coordinates (Angstroms)
 Number     Number       Type             X           Y           Z
 ---------------------------------------------------------------------
      1         17           0       -0.547889   -1.136303    0.000000
      2          8           0        0.000000    1.073026    0.000000
      3          8           0        1.164265    1.341617    0.000000
 ---------------------------------------------------------------------

 SCF Done:  E(UB3LYP) =  -610.570395426     A.U. after    1 cycles

 The electronic state is 2-A".
 Alpha  occ. eigenvalues -- -101.52669 -19.35087 -19.32985  -9.46932  -7.22667
 Alpha  occ. eigenvalues --   -7.22250  -7.22229  -1.36520  -0.88512  -0.78167
 Alpha  occ. eigenvalues --   -0.61764  -0.60991  -0.60155  -0.35835  -0.35547
 Alpha  occ. eigenvalues --   -0.32368  -0.31934
 Alpha virt. eigenvalues --   -0.20551   0.12238   0.24393   0.25143   0.27674
 Alpha virt. eigenvalues --    0.30658   0.31453   0.32327   0.33846   0.35513
 Alpha virt. eigenvalues --    0.36373   0.46587   0.54111   0.56687   0.56888

  Beta  occ. eigenvalues -- -101.53209 -19.32639 -19.30045  -9.47445  -7.24417
  Beta  occ. eigenvalues --   -7.22539  -7.22533  -1.31768  -0.83861  -0.78995
  Beta  occ. eigenvalues --   -0.57271  -0.53656  -0.51998  -0.35891  -0.33445
  Beta  occ. eigenvalues --   -0.33408
  Beta virt. eigenvalues --   -0.16532  -0.16277   0.14338   0.24651   0.26554
  Beta virt. eigenvalues --    0.28430   0.30007   0.31954   0.34131   0.34211
  Beta virt. eigenvalues --    0.34989   0.37985   0.46973   0.50120   0.56181

 Mulliken charges and spin densities:
               1          2
     1  Cl  -0.106580  -0.731015
     2  O    0.037410   0.790014
     3  O    0.069170   0.941001
 Sum of Mulliken charges =  -0.00000   1.00000

 Dipole moment (field-independent basis, Debye):
    X=              0.6022    Y=              1.3129    Z=              0.0000  Tot=              1.4444
 Quadrupole moment (field-independent basis, Debye-Ang):
   XX=            -23.4302   YY=            -21.4943   ZZ=            -23.2192
   XY=              0.3285   XZ=              0.0000   YZ=              0.0000

  Exact polarizability:  25.563  16.061  44.024  -0.000  -0.000  11.615
 Approx polarizability:  44.281  28.909  73.475  -0.000  -0.000  15.838

                      1                      2                      3
                     A'                     A'                     A'
 Frequencies --    111.7714               317.6768              1589.3042
 Red. masses --     21.5669                16.3988                15.9951
 Frc consts  --      0.1587                 0.9751                23.8041
 IR Inten    --      0.2411                 0.1296               206.0529

 - Thermochemistry -
 -------------------
 Temperature   298.150 Kelvin.  Pressure   1.00000 Atm.
 Atom     1 has atomic number 17 and mass  34.96885

 Molecular mass:    66.95868 amu.
 Principal axes and moments of inertia in atomic units:
                           1         2         3
     Eigenvalues --    23.81106 420.83257 444.64363
           X            0.47898   0.87783   0.00000
           Y            0.87783  -0.47898   0.00000
           Z            0.00000  -0.00000   1.00000
 This molecule is an asymmetric top.
 Rotational symmetry number  1.
 Rotational temperatures (Kelvin)      3.63755     0.20582     0.19479
 Rotational constants (GHZ):          75.79425     4.28850     4.05885
 Zero-point vibrational energy      12074.8 (Joules/Mol)
                                    2.88595 (Kcal/Mol)
 Warning -- explicit consideration of   2 degrees of freedom as
           vibrations may cause significant error
 Vibrational temperatures:    160.81   457.07  2286.65
          (Kelvin)

 Zero-point correction=                           0.004599 (Hartree/Particle)
 Thermal correction to Energy=                    0.008546
 Thermal correction to Enthalpy=                  0.009490
 Thermal correction to Gibbs Free Energy=        -0.022573
 Sum of electronic and zero-point Energies=           -610.565796
 Sum of electronic and thermal Energies=              -610.561850
 Sum of electronic and thermal Enthalpies=            -610.560905
 Sum of electronic and thermal Free Energies=         -610.592968

                     E (Thermal)             CV                S
                      KCal/Mol        Cal/Mol-Kelvin    Cal/Mol-Kelvin
 Total                    5.363              9.596             67.482
 Electronic               0.000              0.000              1.377
 Translational            0.889              2.981             38.522
 Rotational               0.889              2.981             23.015
 Vibrational              3.585              3.634              4.568
 Vibration     1          0.607              1.940              3.238
 Vibration     2          0.704              1.640              1.322

 Optimization completed.
    -- Stationary point found.
 Normal termination of Gaussian 16 at Sat Jun 18 12:24:45 2022.
