 Gaussian 16, Revision B.01,

 -----------------------------------------------
 # b3lyp/gen opt freq CPHF(Grid=OneStep) scf=xqc
 -----------------------------------------------

 ----------------------------
 chloroperoxyl, B3LYP/pcseg-2
 ----------------------------
 Symbolic Z-matrix:
 Charge =  0 Multiplicity = 2

 SCF Done:  E(UB3LYP) =  -610.557958930     A.U. after   25 cycles
 SCF Done:  E(UB3LYP) =  -610.563506919     A.U. after   33 cycles
 SCF Done:  E(UB3LYP) =  -610.569996244     a.u. after    8 cycles
 SCF Done:  E(UB3LYP) =  -610.570079089     A.U. after   13 cycles
 SCF Done:  E(UB3LYP) =  -610.570128676     A.U. after   13 cycles
 SCF Done:  E(UB3LYP) =  -610.570237955     A.U. after   17 cycles
 SCF Done:  E(UB3LYP) =  -610.570356797     A.U. after   18 cycles
 SCF Done:  E(UB3LYP) =  -610.570382224     A.U. after   17 cycles
 SCF Done:  E(UB3LYP) =  -610.570393930     A.U. after   14 cycles
 SCF Done:  E(UB3LYP) =  -610.570395378     A.U. after   13 cycles
 SCF Done:  E(UB3LYP) =  -610.570395436     A.U. after   12 cycles
 Optimization completed.
    -- Stationary point found.
 Normal termination of Gaussian 16 at Tue Jan  2 17:32:15 2024.

 ------------------------------------------------------------------
 #N Geom=AllCheck Guess=TCheck SCRF=Check GenChk UB3LYP/ChkBas Freq
 ------------------------------------------------------------------

 Structure from the checkpoint file:  "cloo.chk"
 ----------------------------
 chloroperoxyl, B3LYP/pcseg-2
 ----------------------------
 Charge =  0 Multiplicity = 2

 SCF Done:  E(UB3LYP) =  -610.570395436     A.U. after    1 cycles

  Exact polarizability:  25.566  16.060  44.013   0.000   0.000  11.616
 Approx polarizability:  44.299  28.929  73.500  -0.000  -0.000  15.839

                      1                      2                      3
                     A'                     A'                     A'
 Frequencies --    111.7957               317.9008              1589.1316
 Red. masses --     21.5671                16.3988                15.9951
 Frc consts  --      0.1588                 0.9764                23.7989
 IR Inten    --      0.2462                 0.1337               206.0981

 - Thermochemistry -
 -------------------
 Temperature   298.150 Kelvin.  Pressure   1.00000 Atm.
 Atom     1 has atomic number 17 and mass  34.96885

 Molecular mass:    66.95868 amu.
 Principal axes and moments of inertia in atomic units:
                           1         2         3
     Eigenvalues --    23.81320 420.65880 444.47200
           X            0.47911   0.87775   0.00000
           Y            0.87775  -0.47911   0.00000
           Z            0.00000  -0.00000   1.00000
 This molecule is an asymmetric top.
 Rotational symmetry number  1.
 Rotational temperatures (Kelvin)      3.63722     0.20590     0.19487
 Rotational constants (GHZ):          75.78744     4.29027     4.06042
 Zero-point vibrational energy      12075.3 (Joules/Mol)
                                    2.88606 (Kcal/Mol)
 Warning -- explicit consideration of   2 degrees of freedom as
           vibrations may cause significant error
 Vibrational temperatures:    160.85   457.39  2286.41
          (Kelvin)

 Zero-point correction=                           0.004599 (Hartree/Particle)
 Thermal correction to Energy=                    0.008546
 Thermal correction to Enthalpy=                  0.009490
 Thermal correction to Gibbs Free Energy=        -0.022572
 Sum of electronic and zero-point Energies=           -610.565796
 Sum of electronic and thermal Energies=              -610.561850
 Sum of electronic and thermal Enthalpies=            -610.560906
 Sum of electronic and thermal Free Energies=         -610.592968

                     E (Thermal)             CV                S
                      KCal/Mol        Cal/Mol-Kelvin    Cal/Mol-Kelvin
 Total                    5.363              9.595             67.480
 Electronic               0.000              0.000              1.377
 Translational            0.889              2.981             38.522
 Rotational               0.889              2.981             23.014
 Vibrational              3.585              3.634              4.566
 Vibration     1          0.607              1.940              3.237
 Vibration     2          0.704              1.639              1.321

 Optimization completed.
    -- Stationary point found.
 Normal termination of Gaussian 16 at Tue Jan  2 17:32:43 2024.
 Gaussian 16:  ES64L-G16RevB.01 20-Dec-2017

 ---------------------
 # rohf/gen geom=check
 ---------------------

 -------------------------------
 chloroperoxyl, ROHF/cc-pVTZ-F12
 -------------------------------
 Structure from the checkpoint file:  "cloo.chk"
 Charge =  0 Multiplicity = 2

                         Standard orientation:
 ---------------------------------------------------------------------
 Center     Atomic      Atomic             Coordinates (Angstroms)
 Number     Number       Type             X           Y           Z
 ---------------------------------------------------------------------
      1         17           0       -0.547920   -1.135988    0.000000
      2          8           0        0.000000    1.072793    0.000000
      3          8           0        1.164330    1.341182    0.000000
 ---------------------------------------------------------------------

 SCF Done:  E(ROHF) =  -609.057383711     A.U. after   20 cycles

 The electronic state is 2-A".
 Alpha  occ. eigenvalues -- -104.85644 -20.82947 -20.78517 -10.57716  -8.04360
 Alpha  occ. eigenvalues --   -8.04174  -8.04170  -1.72094  -1.15161  -1.04561
 Alpha  occ. eigenvalues --   -0.79659  -0.76453  -0.74844  -0.46320  -0.46245
 Alpha  occ. eigenvalues --   -0.42502  -0.18076
 Alpha virt. eigenvalues --   -0.07619   0.07689   0.09462   0.10094   0.10141
 Alpha virt. eigenvalues --    0.12326   0.14298   0.14440   0.17907   0.18523
 Alpha virt. eigenvalues --    0.20768   0.28512   0.31624   0.42402   0.46802

 Mulliken charges and spin densities:
               1          2
     1  Cl  -0.182547   0.001357
     2  O    0.072252   0.224691
     3  O    0.110295   0.773951
 Sum of Mulliken charges =  -0.00000   1.00000

 Dipole moment (field-independent basis, Debye):
    X=              0.9775    Y=              1.9118    Z=              0.0000  Tot=              2.1472
 Quadrupole moment (field-independent basis, Debye-Ang):
   XX=            -23.0691   YY=            -21.4165   ZZ=            -23.1701
   XY=              0.7228   XZ=              0.0000   YZ=              0.0000

 Normal termination of Gaussian 16 at Tue Jan  2 17:32:53 2024.
