 Gaussian 16, Revision B.01,
 Gaussian 16:  ES64L-G16RevB.01 20-Dec-2017

 --------------------
 # b3lyp/gen opt freq
 --------------------

 --------------------------------
 chlorine peroxide, B3LYP/pcseg-2
 --------------------------------
 Symbolic Z-matrix:
 Charge =  0 Multiplicity = 1

 SCF Done:  E(RB3LYP) =  -1070.77446469     A.U. after   12 cycles
 SCF Done:  E(RB3LYP) =  -1070.77450489     A.U. after    8 cycles
 SCF Done:  E(RB3LYP) =  -1070.77457924     A.U. after   10 cycles
 SCF Done:  E(RB3LYP) =  -1070.77458379     A.U. after    9 cycles
 SCF Done:  E(RB3LYP) =  -1070.77458798     A.U. after    8 cycles
 Optimization completed.
    -- Stationary point found.
 Normal termination of Gaussian 16 at Thu Jun 16 12:05:26 2022.

 ------------------------------------------------------------------
 #N Geom=AllCheck Guess=TCheck SCRF=Check GenChk RB3LYP/ChkBas Freq
 ------------------------------------------------------------------

 Structure from the checkpoint file:  "/wrk/irikura/Gau-24921.chk"
 --------------------------------
 chlorine peroxide, B3LYP/pcseg-2
 --------------------------------
 Charge =  0 Multiplicity = 1

                         Standard orientation:
 ---------------------------------------------------------------------
 Center     Atomic      Atomic             Coordinates (Angstroms)
 Number     Number       Type             X           Y           Z
 ---------------------------------------------------------------------
      1          8           0        0.327654    0.595376    0.820179
      2          8           0       -0.327654   -0.595376    0.820179
      3         17           0       -0.327654    1.694641   -0.385967
      4         17           0        0.327654   -1.694641   -0.385967
 ---------------------------------------------------------------------

 SCF Done:  E(RB3LYP) =  -1070.77458798     A.U. after    1 cycles

 The electronic state is 1-A.
 Alpha  occ. eigenvalues -- -101.57324-101.57324 -19.29535 -19.29524  -9.51468
 Alpha  occ. eigenvalues --   -9.51468  -7.28011  -7.28011  -7.26607  -7.26607
 Alpha  occ. eigenvalues --   -7.26544  -7.26544  -1.22950  -0.98188  -0.85491
 Alpha  occ. eigenvalues --   -0.77405  -0.58227  -0.53751  -0.53139  -0.40837
 Alpha  occ. eigenvalues --   -0.40437  -0.36148  -0.35099  -0.32107  -0.32093
 Alpha virt. eigenvalues --   -0.13104  -0.12657   0.02655   0.24382   0.24984
 Alpha virt. eigenvalues --    0.26075   0.27569   0.29738   0.30190   0.32243
 Alpha virt. eigenvalues --    0.32260   0.32888   0.33073   0.34344   0.38057

 Mulliken charges:
               1
     1  O   -0.072587
     2  O   -0.072587
     3  Cl   0.072587
     4  Cl   0.072587
 Sum of Mulliken charges =  -0.00000

 Dipole moment (field-independent basis, Debye):
    X=              0.0000    Y=              0.0000    Z=             -0.6135  Tot=              0.6135
 Quadrupole moment (field-independent basis, Debye-Ang):
   XX=            -35.8389   YY=            -33.6655   ZZ=            -35.1354
   XY=             -1.0858   XZ=              0.0000   YZ=              0.0000

  Exact polarizability:  22.401  -7.869  60.508  -0.000   0.000  30.701
 Approx polarizability:  36.094 -11.800  95.034  -0.000   0.000  59.477

                      1                      2                      3
                      A                      A                      B
 Frequencies --    124.9227               322.6043               436.1945
 Red. masses --     27.9327                20.7485                19.4137
 Frc consts  --      0.2568                 1.2723                 2.1763
 IR Inten    --      0.4050                 1.6459                17.7286

                      4                      5                      6
                      A                      B                      A
 Frequencies --    549.5536               633.8670               845.5134
 Red. masses --     16.9293                17.4729                16.6119
 Frc consts  --      3.0124                 4.1363                 6.9970
 IR Inten    --     25.5723                52.8349                23.0292

 - Thermochemistry -
 -------------------
 Temperature   298.150 Kelvin.  Pressure   1.00000 Atm.
 Atom     1 has atomic number  8 and mass  15.99491

 Molecular mass:   101.92753 amu.
 Principal axes and moments of inertia in atomic units:
                           1         2         3
     Eigenvalues --   134.72941 796.81094 890.14695
           X           -0.15598   0.00000   0.98776
           Y            0.98776   0.00000   0.15598
           Z           -0.00000   1.00000   0.00000
 This molecule is an asymmetric top.
 Rotational symmetry number  2.
 Rotational temperatures (Kelvin)      0.64287     0.10870     0.09730
 Rotational constants (GHZ):          13.39530     2.26496     2.02746
 Zero-point vibrational energy      17421.5 (Joules/Mol)
                                    4.16385 (Kcal/Mol)
 Warning -- explicit consideration of   4 degrees of freedom as
           vibrations may cause significant error
 Vibrational temperatures:    179.74   464.16   627.59   790.69   911.99
          (Kelvin)           1216.51

 Zero-point correction=                           0.006636 (Hartree/Particle)
 Thermal correction to Energy=                    0.011223
 Thermal correction to Enthalpy=                  0.012167
 Thermal correction to Gibbs Free Energy=        -0.021439
 Sum of electronic and zero-point Energies=          -1070.767952
 Sum of electronic and thermal Energies=             -1070.763365
 Sum of electronic and thermal Enthalpies=           -1070.762421
 Sum of electronic and thermal Free Energies=        -1070.796027

                     E (Thermal)             CV                S
                      KCal/Mol        Cal/Mol-Kelvin    Cal/Mol-Kelvin
 Total                    7.043             13.591             70.730
 Electronic               0.000              0.000              0.000
 Translational            0.889              2.981             39.775
 Rotational               0.889              2.981             24.683
 Vibrational              5.265              7.630              6.272
 Vibration     1          0.610              1.928              3.023
 Vibration     2          0.708              1.630              1.297
 Vibration     3          0.797              1.391              0.839
 Vibration     4          0.905              1.141              0.545

 Optimization completed.
    -- Stationary point found.
 Normal termination of Gaussian 16 at Thu Jun 16 12:05:40 2022.
