 Gaussian 16, Revision B.01,

 ---------------------------------------
 # b3lyp/gen opt freq CPHF(Grid=OneStep)
 ---------------------------------------

 --------------------------------
 chlorine peroxide, B3LYP/pcseg-2
 --------------------------------
 Symbolic Z-matrix:
 Charge =  0 Multiplicity = 1

 SCF Done:  E(RB3LYP) =  -1070.77458798     A.U. after   12 cycles
 SCF Done:  E(RB3LYP) =  -1070.77458798     A.U. after    7 cycles
 Optimization completed.
    -- Stationary point found.
 Normal termination of Gaussian 16 at Fri Sep 29 22:28:22 2023.

 ------------------------------------------------------------------
 #N Geom=AllCheck Guess=TCheck SCRF=Check GenChk RB3LYP/ChkBas Freq
 ------------------------------------------------------------------

 Structure from the checkpoint file:  "cloocl.chk"
 --------------------------------
 chlorine peroxide, B3LYP/pcseg-2
 --------------------------------
 Charge =  0 Multiplicity = 1

 SCF Done:  E(RB3LYP) =  -1070.77458798     A.U. after    1 cycles

  Exact polarizability:  22.413  -7.885  60.559  -0.000   0.000  30.671
 Approx polarizability:  36.116 -11.829  95.111   0.000  -0.000  59.397

                      1                      2                      3
                      A                      A                      B
 Frequencies --    124.7992               322.1148               436.1749
 Red. masses --     27.9083                20.7660                19.4054
 Frc consts  --      0.2561                 1.2695                 2.1752
 IR Inten    --      0.3976                 1.6727                17.7035

                      4                      5                      6
                      A                      B                      A
 Frequencies --    550.1170               633.5381               845.6675
 Red. masses --     16.9257                17.4775                16.6119
 Frc consts  --      3.0179                 4.1331                 6.9995
 IR Inten    --     25.5254                52.9710                23.0312

 - Thermochemistry -
 -------------------
 Temperature   298.150 Kelvin.  Pressure   1.00000 Atm.
 Atom     1 has atomic number  8 and mass  15.99491

 Molecular mass:   101.92753 amu.
 Principal axes and moments of inertia in atomic units:
                           1         2         3
     Eigenvalues --   134.46929 797.78089 890.78864
           X           -0.15610   0.00000   0.98774
           Y            0.98774   0.00000   0.15610
           Z           -0.00000   1.00000  -0.00000
 This molecule is an asymmetric top.
 Rotational symmetry number  2.
 Rotational temperatures (Kelvin)      0.64412     0.10857     0.09723
 Rotational constants (GHZ):          13.42121     2.26220     2.02600
 Zero-point vibrational energy      17420.1 (Joules/Mol)
                                    4.16350 (Kcal/Mol)
 Warning -- explicit consideration of   4 degrees of freedom as
           vibrations may cause significant error
 Vibrational temperatures:    179.56   463.45   627.56   791.50   911.52
          (Kelvin)           1216.73

 Zero-point correction=                           0.006635 (Hartree/Particle)
 Thermal correction to Energy=                    0.011223
 Thermal correction to Enthalpy=                  0.012167
 Thermal correction to Gibbs Free Energy=        -0.021441
 Sum of electronic and zero-point Energies=          -1070.767953
 Sum of electronic and thermal Energies=             -1070.763365
 Sum of electronic and thermal Enthalpies=           -1070.762421
 Sum of electronic and thermal Free Energies=        -1070.796029

                     E (Thermal)             CV                S
                      KCal/Mol        Cal/Mol-Kelvin    Cal/Mol-Kelvin
 Total                    7.043             13.592             70.733
 Electronic               0.000              0.000              0.000
 Translational            0.889              2.981             39.775
 Rotational               0.889              2.981             24.683
 Vibrational              5.265              7.630              6.275
 Vibration     1          0.610              1.928              3.025
 Vibration     2          0.707              1.631              1.299
 Vibration     3          0.797              1.391              0.839
 Vibration     4          0.905              1.139              0.544

 Optimization completed.
    -- Stationary point found.
 Normal termination of Gaussian 16 at Fri Sep 29 22:29:01 2023.
 Gaussian 16:  ES64L-G16RevB.01 20-Dec-2017

 ---------------------------------
 # rohf/gen geom=check guess=check
 ---------------------------------

 -----------------------------------
 chlorine peroxide, ROHF/cc-pVTZ-F12
 -----------------------------------
 Structure from the checkpoint file:  "cloocl.chk"
 Charge =  0 Multiplicity = 1

                         Standard orientation:
 ---------------------------------------------------------------------
 Center     Atomic      Atomic             Coordinates (Angstroms)
 Number     Number       Type             X           Y           Z
 ---------------------------------------------------------------------
      1          8           0        0.328002    0.595116    0.819121
      2          8           0       -0.328002   -0.595116    0.819121
      3         17           0       -0.328002    1.695730   -0.385469
      4         17           0        0.328002   -1.695730   -0.385469
 ---------------------------------------------------------------------

 SCF Done:  E(ROHF) =  -1068.58314978     A.U. after   14 cycles

 The electronic state is 1-A.
 Alpha  occ. eigenvalues -- -104.91183-104.91183 -20.73139 -20.73095 -10.63204
 Alpha  occ. eigenvalues --  -10.63204  -8.09893  -8.09893  -8.09640  -8.09640
 Alpha  occ. eigenvalues --   -8.09621  -8.09621  -1.57589  -1.28066  -1.11101
 Alpha  occ. eigenvalues --   -1.03137  -0.72923  -0.72657  -0.71888  -0.56346
 Alpha  occ. eigenvalues --   -0.55805  -0.50637  -0.49339  -0.47177  -0.46775
 Alpha virt. eigenvalues --    0.03306   0.03588   0.07473   0.07866   0.08845
 Alpha virt. eigenvalues --    0.09749   0.11269   0.11374   0.12566   0.14548
 Alpha virt. eigenvalues --    0.17288   0.19032   0.20376   0.21743   0.22782

 Mulliken charges and spin densities:
               1          2
     1  O   -0.147730   0.000000
     2  O   -0.147730   0.000000
     3  Cl   0.147730   0.000000
     4  Cl   0.147730   0.000000
 Sum of Mulliken charges =  -0.00000   0.00000

 Dipole moment (field-independent basis, Debye):
    X=             -0.0000    Y=             -0.0000    Z=             -0.8986  Tot=              0.8986
 Quadrupole moment (field-independent basis, Debye-Ang):
   XX=            -35.7758   YY=            -32.6679   ZZ=            -35.0647
   XY=             -1.3659   XZ=             -0.0000   YZ=             -0.0000

 Normal termination of Gaussian 16 at Fri Sep 29 22:29:31 2023.
