 Gaussian 16, Revision B.01,
 Gaussian 16:  ES64L-G16RevB.01 20-Dec-2017

 --------------------
 # b3lyp/gen opt freq
 --------------------

 -------------------------
 neopentane, B3LYP/pcseg-2
 -------------------------
 Symbolic Z-matrix:
 Charge =  0 Multiplicity = 1

 SCF Done:  E(RB3LYP) =  -197.854769050     A.U. after   11 cycles
 SCF Done:  E(RB3LYP) =  -197.854907655     A.U. after    7 cycles
 Optimization completed.
    -- Stationary point found.
 Normal termination of Gaussian 16 at Wed Jun 15 20:57:12 2022.

 ------------------------------------------------------------------
 #N Geom=AllCheck Guess=TCheck SCRF=Check GenChk RB3LYP/ChkBas Freq
 ------------------------------------------------------------------

 Structure from the checkpoint file:  "/wrk/irikura/Gau-22432.chk"
 -------------------------
 neopentane, B3LYP/pcseg-2
 -------------------------
 Charge =  0 Multiplicity = 1

                         Standard orientation:
 ---------------------------------------------------------------------
 Center     Atomic      Atomic             Coordinates (Angstroms)
 Number     Number       Type             X           Y           Z
 ---------------------------------------------------------------------
      1          6           0        0.000000    0.000000    0.000000
      2          6           0        0.886622    0.886622    0.886622
      3          6           0       -0.886622   -0.886622    0.886622
      4          6           0       -0.886622    0.886622   -0.886622
      5          6           0        0.886622   -0.886622   -0.886622
      6          1           0        1.529404    0.281751    1.529404
      7          1           0        1.529404    1.529404    0.281751
      8          1           0        0.281751    1.529404    1.529404
      9          1           0       -1.529404   -1.529404    0.281751
     10          1           0       -0.281751   -1.529404    1.529404
     11          1           0       -1.529404   -0.281751    1.529404
     12          1           0       -1.529404    0.281751   -1.529404
     13          1           0       -1.529404    1.529404   -0.281751
     14          1           0       -0.281751    1.529404   -1.529404
     15          1           0        1.529404   -1.529404   -0.281751
     16          1           0        0.281751   -1.529404   -1.529404
     17          1           0        1.529404   -0.281751   -1.529404
 ---------------------------------------------------------------------

 SCF Done:  E(RB3LYP) =  -197.854907655     A.U. after    1 cycles

 The electronic state is 1-A1.
 Alpha  occ. eigenvalues --  -10.18119 -10.15522 -10.15522 -10.15522 -10.15522
 Alpha  occ. eigenvalues --   -0.82123  -0.68449  -0.68449  -0.68449  -0.53421
 Alpha  occ. eigenvalues --   -0.44977  -0.44977  -0.44977  -0.40203  -0.40203
 Alpha  occ. eigenvalues --   -0.36505  -0.36505  -0.36505  -0.32319  -0.32319
 Alpha  occ. eigenvalues --   -0.32319
 Alpha virt. eigenvalues --    0.00813   0.05144   0.05144   0.05144   0.06634
 Alpha virt. eigenvalues --    0.06634   0.06634   0.10288   0.10288   0.10316
 Alpha virt. eigenvalues --    0.13029   0.13029   0.13029   0.14318   0.14318

 Mulliken charges:
               1
     1  C    0.063349
     2  C   -0.095628
     3  C   -0.095628
     4  C   -0.095628
     5  C   -0.095628
     6  H    0.026597
     7  H    0.026597
     8  H    0.026597
     9  H    0.026597
    10  H    0.026597
    11  H    0.026597
    12  H    0.026597
    13  H    0.026597
    14  H    0.026597
    15  H    0.026597
    16  H    0.026597
    17  H    0.026597
 Sum of Mulliken charges =  -0.00000

 Dipole moment (field-independent basis, Debye):
    X=              0.0000    Y=              0.0000    Z=              0.0000  Tot=              0.0000
 Quadrupole moment (field-independent basis, Debye-Ang):
   XX=            -35.9584   YY=            -35.9584   ZZ=            -35.9584
   XY=             -0.0000   XZ=              0.0000   YZ=             -0.0000

  Exact polarizability:  64.511   0.000  64.511  -0.000   0.000  64.511
 Approx polarizability:  87.095   0.000  87.095   0.000   0.000  87.095

                      1                      2                      3
                     A2                     T1                     T1
 Frequencies --    208.1516               273.0429               273.0429
 Red. masses --      1.0078                 1.0304                 1.0304
 Frc consts  --      0.0257                 0.0453                 0.0453
 IR Inten    --      0.0000                 0.0000                 0.0000

                      4                      5                      6
                     T1                      E                      E
 Frequencies --    273.0429               328.4345               328.4345
 Red. masses --      1.0304                 2.1786                 2.1786
 Frc consts  --      0.0453                 0.1385                 0.1385
 IR Inten    --      0.0000                 0.0000                 0.0000

                      7                      8                      9
                     T2                     T2                     T2
 Frequencies --    413.7125               413.7125               413.7125
 Red. masses --      2.0914                 2.0914                 2.0914
 Frc consts  --      0.2109                 0.2109                 0.2109
 IR Inten    --      0.0702                 0.0702                 0.0702

                     10                     11                     12
                     A1                     T2                     T2
 Frequencies --    729.8620               925.3305               925.3305
 Red. masses --      3.4679                 2.0307                 2.0307
 Frc consts  --      1.0884                 1.0245                 1.0245
 IR Inten    --      0.0000                 0.2416                 0.2416

                     13                     14                     15
                     T2                     T1                     T1
 Frequencies --    925.3305               963.0034               963.0034
 Red. masses --      2.0307                 1.2034                 1.2034
 Frc consts  --      1.0245                 0.6575                 0.6575
 IR Inten    --      0.2416                 0.0000                 0.0000

                     16                     17                     18
                     T1                      E                      E
 Frequencies --    963.0034              1088.6387              1088.6387
 Red. masses --      1.2034                 1.3642                 1.3642
 Frc consts  --      0.6575                 0.9526                 0.9526
 IR Inten    --      0.0000                 0.0000                 0.0000

                     19                     20                     21
                     T2                     T2                     T2
 Frequencies --   1272.8166              1272.8166              1272.8166
 Red. masses --      2.6918                 2.6918                 2.6918
 Frc consts  --      2.5694                 2.5694                 2.5694
 IR Inten    --      5.0960                 5.0960                 5.0960

                     22                     23                     24
                     T2                     T2                     T2
 Frequencies --   1399.5336              1399.5336              1399.5336
 Red. masses --      1.2262                 1.2262                 1.2262
 Frc consts  --      1.4150                 1.4150                 1.4150
 IR Inten    --      8.4580                 8.4580                 8.4580

                     25                     26                     27
                     A1                     T1                     T1
 Frequencies --   1436.7844              1482.4464              1482.4464
 Red. masses --      1.2286                 1.0479                 1.0479
 Frc consts  --      1.4944                 1.3568                 1.3568
 IR Inten    --      0.0000                 0.0000                 0.0000

                     28                     29                     30
                     T1                      E                      E
 Frequencies --   1482.4464              1490.7557              1490.7557
 Red. masses --      1.0479                 1.0415                 1.0415
 Frc consts  --      1.3568                 1.3637                 1.3637
 IR Inten    --      0.0000                 0.0000                 0.0000

                     31                     32                     33
                     T2                     T2                     T2
 Frequencies --   1515.5140              1515.5140              1515.5140
 Red. masses --      1.0617                 1.0617                 1.0617
 Frc consts  --      1.4367                 1.4367                 1.4367
 IR Inten    --     11.6365                11.6365                11.6365

                     34                     35                     36
                     T2                     T2                     T2
 Frequencies --   3015.3032              3015.3032              3015.3032
 Red. masses --      1.0338                 1.0338                 1.0338
 Frc consts  --      5.5380                 5.5380                 5.5380
 IR Inten    --     39.8631                39.8631                39.8631

                     37                     38                     39
                     A1                     T1                     T1
 Frequencies --   3026.9560              3077.7391              3077.7391
 Red. masses --      1.0357                 1.1027                 1.1027
 Frc consts  --      5.5911                 6.1544                 6.1544
 IR Inten    --      0.0000                 0.0000                 0.0000

                     40                     41                     42
                     T1                      E                      E
 Frequencies --   3077.7391              3078.6092              3078.6092
 Red. masses --      1.1027                 1.1015                 1.1015
 Frc consts  --      6.1544                 6.1511                 6.1511
 IR Inten    --      0.0000                 0.0000                 0.0000

                     43                     44                     45
                     T2                     T2                     T2
 Frequencies --   3085.5722              3085.5722              3085.5722
 Red. masses --      1.1007                 1.1007                 1.1007
 Frc consts  --      6.1742                 6.1742                 6.1742
 IR Inten    --     90.0860                90.0860                90.0860

 - Thermochemistry -
 -------------------
 Temperature   298.150 Kelvin.  Pressure   1.00000 Atm.
 Atom     1 has atomic number  6 and mass  12.00000

 Molecular mass:    72.09390 amu.
 Principal axes and moments of inertia in atomic units:
                           1         2         3
     Eigenvalues --   406.47143 406.47143 406.47143
           X           -0.54866   0.83605   0.00000
           Y            0.83605   0.54866   0.00000
           Z           -0.00000  -0.00000   1.00000
 This molecule is a spherical top.
 Rotational symmetry number 12.
 Rotational temperatures (Kelvin)      0.21309     0.21309     0.21309
 Rotational constants (GHZ):           4.44002     4.44002     4.44002
 Zero-point vibrational energy     416579.6 (Joules/Mol)
                                   99.56492 (Kcal/Mol)
 Warning -- explicit consideration of   9 degrees of freedom as
           vibrations may cause significant error
 Vibrational temperatures:    299.48   392.85   392.85   392.85   472.54
          (Kelvin)            472.54   595.24   595.24   595.24  1050.11
                             1331.34  1331.34  1331.34  1385.55  1385.55
                             1385.55  1566.31  1566.31  1831.30  1831.30
                             1831.30  2013.62  2013.62  2013.62  2067.21
                             2132.91  2132.91  2132.91  2144.86  2144.86
                             2180.49  2180.49  2180.49  4338.35  4338.35
                             4338.35  4355.11  4428.18  4428.18  4428.18
                             4429.43  4429.43  4439.45  4439.45  4439.45

 Zero-point correction=                           0.158667 (Hartree/Particle)
 Thermal correction to Energy=                    0.165607
 Thermal correction to Enthalpy=                  0.166551
 Thermal correction to Gibbs Free Energy=         0.131892
 Sum of electronic and zero-point Energies=           -197.696241
 Sum of electronic and thermal Energies=              -197.689301
 Sum of electronic and thermal Enthalpies=            -197.688357
 Sum of electronic and thermal Free Energies=         -197.723016

                     E (Thermal)             CV                S
                      KCal/Mol        Cal/Mol-Kelvin    Cal/Mol-Kelvin
 Total                  103.920             26.034             72.946
 Electronic               0.000              0.000              0.000
 Translational            0.889              2.981             38.743
 Rotational               0.889              2.981             20.772
 Vibrational            102.142             20.072             13.431
 Vibration     1          0.641              1.828              2.060
 Vibration     2          0.676              1.723              1.577
 Vibration     3          0.676              1.723              1.577
 Vibration     4          0.676              1.723              1.577
 Vibration     5          0.712              1.619              1.268
 Vibration     6          0.712              1.619              1.268
 Vibration     7          0.777              1.440              0.914
 Vibration     8          0.777              1.440              0.914
 Vibration     9          0.777              1.440              0.914

 Optimization completed.
    -- Stationary point found.
 Normal termination of Gaussian 16 at Wed Jun 15 20:59:43 2022.
