 Gaussian 16, Revision B.01,

 ---------------------------------------
 # b3lyp/gen opt freq CPHF(Grid=OneStep)
 ---------------------------------------

 -------------------------
 neopentane, B3LYP/pcseg-2
 -------------------------
 Symbolic Z-matrix:
 Charge =  0 Multiplicity = 1

 SCF Done:  E(RB3LYP) =  -197.854907655     A.U. after   11 cycles
 Optimization completed.
    -- Stationary point found.
 Normal termination of Gaussian 16 at Fri Sep 29 01:48:21 2023.

 ------------------------------------------------------------------
 #N Geom=AllCheck Guess=TCheck SCRF=Check GenChk RB3LYP/ChkBas Freq
 ------------------------------------------------------------------

 Structure from the checkpoint file:  "cme4.chk"
 -------------------------
 neopentane, B3LYP/pcseg-2
 -------------------------
 Charge =  0 Multiplicity = 1

 SCF Done:  E(RB3LYP) =  -197.854907655     A.U. after    1 cycles

  Exact polarizability:  64.509   0.000  64.509  -0.000   0.000  64.509
 Approx polarizability:  87.095   0.000  87.095   0.000  -0.000  87.095

                      1                      2                      3
                     A2                     T1                     T1
 Frequencies --    208.1517               273.0406               273.0406
 Red. masses --      1.0078                 1.0304                 1.0304
 Frc consts  --      0.0257                 0.0453                 0.0453
 IR Inten    --      0.0000                 0.0000                 0.0000

                      4                      5                      6
                     T1                      E                      E
 Frequencies --    273.0406               328.4319               328.4319
 Red. masses --      1.0304                 2.1786                 2.1786
 Frc consts  --      0.0453                 0.1385                 0.1385
 IR Inten    --      0.0000                 0.0000                 0.0000

                      7                      8                      9
                     T2                     T2                     T2
 Frequencies --    413.7088               413.7088               413.7088
 Red. masses --      2.0914                 2.0914                 2.0914
 Frc consts  --      0.2109                 0.2109                 0.2109
 IR Inten    --      0.0703                 0.0703                 0.0703

                     10                     11                     12
                     A1                     T2                     T2
 Frequencies --    729.8600               925.3367               925.3367
 Red. masses --      3.4681                 2.0308                 2.0308
 Frc consts  --      1.0885                 1.0245                 1.0245
 IR Inten    --      0.0000                 0.2404                 0.2404

                     13                     14                     15
                     T2                     T1                     T1
 Frequencies --    925.3367               963.0167               963.0167
 Red. masses --      2.0308                 1.2034                 1.2034
 Frc consts  --      1.0245                 0.6576                 0.6576
 IR Inten    --      0.2404                 0.0000                 0.0000

                     16                     17                     18
                     T1                      E                      E
 Frequencies --    963.0168              1088.6405              1088.6405
 Red. masses --      1.2034                 1.3642                 1.3642
 Frc consts  --      0.6576                 0.9526                 0.9526
 IR Inten    --      0.0000                 0.0000                 0.0000

                     19                     20                     21
                     T2                     T2                     T2
 Frequencies --   1272.8185              1272.8185              1272.8185
 Red. masses --      2.6920                 2.6920                 2.6920
 Frc consts  --      2.5695                 2.5695                 2.5695
 IR Inten    --      5.0968                 5.0968                 5.0968

                     22                     23                     24
                     T2                     T2                     T2
 Frequencies --   1399.5497              1399.5497              1399.5497
 Red. masses --      1.2261                 1.2261                 1.2261
 Frc consts  --      1.4150                 1.4150                 1.4150
 IR Inten    --      8.4446                 8.4446                 8.4446

                     25                     26                     27
                     A1                     T1                     T1
 Frequencies --   1436.7833              1482.4804              1482.4804
 Red. masses --      1.2286                 1.0479                 1.0479
 Frc consts  --      1.4943                 1.3569                 1.3569
 IR Inten    --      0.0000                 0.0000                 0.0000

                     28                     29                     30
                     T1                      E                      E
 Frequencies --   1482.4804              1490.7883              1490.7883
 Red. masses --      1.0479                 1.0415                 1.0415
 Frc consts  --      1.3569                 1.3637                 1.3637
 IR Inten    --      0.0000                 0.0000                 0.0000

                     31                     32                     33
                     T2                     T2                     T2
 Frequencies --   1515.5275              1515.5275              1515.5275
 Red. masses --      1.0616                 1.0616                 1.0616
 Frc consts  --      1.4367                 1.4367                 1.4367
 IR Inten    --     11.6344                11.6344                11.6344

                     34                     35                     36
                     T2                     T2                     T2
 Frequencies --   3015.3283              3015.3283              3015.3283
 Red. masses --      1.0338                 1.0338                 1.0338
 Frc consts  --      5.5381                 5.5381                 5.5381
 IR Inten    --     39.9170                39.9170                39.9170

                     37                     38                     39
                     A1                     T1                     T1
 Frequencies --   3026.9639              3077.7781              3077.7781
 Red. masses --      1.0357                 1.1027                 1.1027
 Frc consts  --      5.5911                 6.1545                 6.1545
 IR Inten    --      0.0000                 0.0000                 0.0000

                     40                     41                     42
                     T1                      E                      E
 Frequencies --   3077.7781              3078.6397              3078.6397
 Red. masses --      1.1027                 1.1015                 1.1015
 Frc consts  --      6.1545                 6.1512                 6.1512
 IR Inten    --      0.0000                 0.0000                 0.0000

                     43                     44                     45
                     T2                     T2                     T2
 Frequencies --   3085.5829              3085.5829              3085.5829
 Red. masses --      1.1007                 1.1007                 1.1007
 Frc consts  --      6.1742                 6.1742                 6.1742
 IR Inten    --     90.0414                90.0414                90.0414

 - Thermochemistry -
 -------------------
 Temperature   298.150 Kelvin.  Pressure   1.00000 Atm.
 Atom     1 has atomic number  6 and mass  12.00000

 Molecular mass:    72.09390 amu.
 Principal axes and moments of inertia in atomic units:
                           1         2         3
     Eigenvalues --   406.47138 406.47138 406.47138
           X            0.68468   0.72885   0.00000
           Y            0.72885  -0.68468   0.00000
           Z           -0.00000  -0.00000   1.00000
 This molecule is a spherical top.
 Rotational symmetry number 12.
 Rotational temperatures (Kelvin)      0.21309     0.21309     0.21309
 Rotational constants (GHZ):           4.44002     4.44002     4.44002
 Zero-point vibrational energy     416583.2 (Joules/Mol)
                                   99.56576 (Kcal/Mol)
 Warning -- explicit consideration of   9 degrees of freedom as
           vibrations may cause significant error
 Vibrational temperatures:    299.48   392.84   392.84   392.84   472.54
          (Kelvin)            472.54   595.23   595.23   595.23  1050.11
                             1331.35  1331.35  1331.35  1385.57  1385.57
                             1385.57  1566.31  1566.31  1831.30  1831.30
                             1831.30  2013.64  2013.64  2013.64  2067.21
                             2132.96  2132.96  2132.96  2144.91  2144.91
                             2180.51  2180.51  2180.51  4338.38  4338.38
                             4338.38  4355.13  4428.24  4428.24  4428.24
                             4429.48  4429.48  4439.47  4439.47  4439.47

 Zero-point correction=                           0.158668 (Hartree/Particle)
 Thermal correction to Energy=                    0.165608
 Thermal correction to Enthalpy=                  0.166552
 Thermal correction to Gibbs Free Energy=         0.131893
 Sum of electronic and zero-point Energies=           -197.696240
 Sum of electronic and thermal Energies=              -197.689300
 Sum of electronic and thermal Enthalpies=            -197.688355
 Sum of electronic and thermal Free Energies=         -197.723014

                     E (Thermal)             CV                S
                      KCal/Mol        Cal/Mol-Kelvin    Cal/Mol-Kelvin
 Total                  103.921             26.033             72.946
 Electronic               0.000              0.000              0.000
 Translational            0.889              2.981             38.743
 Rotational               0.889              2.981             20.772
 Vibrational            102.143             20.072             13.431
 Vibration     1          0.641              1.828              2.060
 Vibration     2          0.676              1.723              1.577
 Vibration     3          0.676              1.723              1.577
 Vibration     4          0.676              1.723              1.577
 Vibration     5          0.712              1.619              1.268
 Vibration     6          0.712              1.619              1.268
 Vibration     7          0.777              1.440              0.914
 Vibration     8          0.777              1.440              0.914
 Vibration     9          0.777              1.440              0.914

 Optimization completed.
    -- Stationary point found.
 Normal termination of Gaussian 16 at Fri Sep 29 01:58:13 2023.
 Gaussian 16:  ES64L-G16RevB.01 20-Dec-2017

 ---------------------------------
 # rohf/gen geom=check guess=check
 ---------------------------------

 ----------------------------
 neopentane, ROHF/cc-pVTZ-F12
 ----------------------------
 Structure from the checkpoint file:  "cme4.chk"
 Charge =  0 Multiplicity = 1

                         Standard orientation:
 ---------------------------------------------------------------------
 Center     Atomic      Atomic             Coordinates (Angstroms)
 Number     Number       Type             X           Y           Z
 ---------------------------------------------------------------------
      1          6           0        0.000000    0.000000    0.000000
      2          6           0        0.886622    0.886622    0.886622
      3          6           0       -0.886622   -0.886622    0.886622
      4          6           0       -0.886622    0.886622   -0.886622
      5          6           0        0.886622   -0.886622   -0.886622
      6          1           0        1.529404    0.281751    1.529404
      7          1           0        1.529404    1.529404    0.281751
      8          1           0        0.281751    1.529404    1.529404
      9          1           0       -1.529404   -1.529404    0.281751
     10          1           0       -0.281751   -1.529404    1.529404
     11          1           0       -1.529404   -0.281751    1.529404
     12          1           0       -1.529404    0.281751   -1.529404
     13          1           0       -1.529404    1.529404   -0.281751
     14          1           0       -0.281751    1.529404   -1.529404
     15          1           0        1.529404   -1.529404   -0.281751
     16          1           0        0.281751   -1.529404   -1.529404
     17          1           0        1.529404   -0.281751   -1.529404
 ---------------------------------------------------------------------

 SCF Done:  E(ROHF) =  -196.414925288     A.U. after    9 cycles

 The electronic state is 1-A1.
 Alpha  occ. eigenvalues --  -11.22975 -11.20583 -11.20583 -11.20583 -11.20579
 Alpha  occ. eigenvalues --   -1.10119  -0.92747  -0.92747  -0.92747  -0.73033
 Alpha  occ. eigenvalues --   -0.60959  -0.60959  -0.60959  -0.55196  -0.55196
 Alpha  occ. eigenvalues --   -0.50959  -0.50959  -0.50959  -0.45206  -0.45206
 Alpha  occ. eigenvalues --   -0.45206
 Alpha virt. eigenvalues --    0.04425   0.05142   0.05142   0.05142   0.08313
 Alpha virt. eigenvalues --    0.08313   0.08313   0.09454   0.09454   0.11295
 Alpha virt. eigenvalues --    0.11863   0.11863   0.11863   0.16884   0.16884

 Mulliken charges and spin densities:
               1          2
     1  C    0.154934   0.000000
     2  C   -0.332762   0.000000
     3  C   -0.332762   0.000000
     4  C   -0.332762   0.000000
     5  C   -0.332762   0.000000
     6  H    0.098009   0.000000
     7  H    0.098009   0.000000
     8  H    0.098009   0.000000
     9  H    0.098009   0.000000
    10  H    0.098009   0.000000
    11  H    0.098009   0.000000
    12  H    0.098009   0.000000
    13  H    0.098009   0.000000
    14  H    0.098009   0.000000
    15  H    0.098009   0.000000
    16  H    0.098009   0.000000
    17  H    0.098009   0.000000
 Sum of Mulliken charges =   0.00000   0.00000

 Dipole moment (field-independent basis, Debye):
    X=             -0.0000    Y=              0.0000    Z=              0.0000  Tot=              0.0000
 Quadrupole moment (field-independent basis, Debye-Ang):
   XX=            -35.7746   YY=            -35.7746   ZZ=            -35.7746
   XY=              0.0000   XZ=              0.0000   YZ=             -0.0000

 Normal termination of Gaussian 16 at Fri Sep 29 01:58:52 2023.
