 Gaussian 16, Revision B.01,
 Gaussian 16:  ES64L-G16RevB.01 20-Dec-2017

 --------------------
 # b3lyp/gen opt freq
 --------------------

 ----------------------------
 cyano radical, B3LYP/pcseg-2
 ----------------------------
 Symbolic Z-matrix:
 Charge =  0 Multiplicity = 2

 SCF Done:  E(UB3LYP) =  -92.7181138203     A.U. after   17 cycles
 SCF Done:  E(UB3LYP) =  -92.7483977199     A.U. after   15 cycles
 SCF Done:  E(UB3LYP) =  -92.7483995755     A.U. after   10 cycles
 Optimization completed.
    -- Stationary point found.
 Normal termination of Gaussian 16 at Fri Jun 24 07:02:47 2022.

 ------------------------------------------------------------------
 #N Geom=AllCheck Guess=TCheck SCRF=Check GenChk UB3LYP/ChkBas Freq
 ------------------------------------------------------------------

 Structure from the checkpoint file:  "/wrk/irikura/Gau-4721.chk"
 ----------------------------
 cyano radical, B3LYP/pcseg-2
 ----------------------------
 Charge =  0 Multiplicity = 2

                         Standard orientation:
 ---------------------------------------------------------------------
 Center     Atomic      Atomic             Coordinates (Angstroms)
 Number     Number       Type             X           Y           Z
 ---------------------------------------------------------------------
      1          6           0        0.000000    0.000000   -0.625509
      2          7           0        0.000000    0.000000    0.536151
 ---------------------------------------------------------------------

 SCF Done:  E(UB3LYP) =  -92.7483995755     A.U. after    1 cycles

 The electronic state is 2-SG.
 Alpha  occ. eigenvalues --  -14.38598 -10.29488  -0.96827  -0.50541  -0.41450
 Alpha  occ. eigenvalues --   -0.39812  -0.39812
 Alpha virt. eigenvalues --   -0.02263  -0.02263   0.10659   0.13199   0.16336
 Alpha virt. eigenvalues --    0.16336   0.26238   0.34892   0.34892   0.52928
 Alpha virt. eigenvalues --    0.57990   0.84562   0.84562   1.01116   1.01116

  Beta  occ. eigenvalues --  -14.38136 -10.27843  -0.94571  -0.43922  -0.38946
  Beta  occ. eigenvalues --   -0.38946
  Beta virt. eigenvalues --   -0.25630  -0.00170  -0.00170   0.11188   0.15759
  Beta virt. eigenvalues --    0.17021   0.17021   0.26881   0.35036   0.35036
  Beta virt. eigenvalues --    0.53568   0.61720   0.85766   0.85766   1.04849

 Mulliken charges and spin densities:
               1          2
     1  C    0.121585   0.874451
     2  N   -0.121585   0.125549
 Sum of Mulliken charges =  -0.00000   1.00000

 Dipole moment (field-independent basis, Debye):
    X=              0.0000    Y=              0.0000    Z=             -1.3961  Tot=              1.3961
 Quadrupole moment (field-independent basis, Debye-Ang):
   XX=            -11.0267   YY=            -11.0267   ZZ=            -10.5753
   XY=              0.0000   XZ=              0.0000   YZ=              0.0000

  Exact polarizability:  16.230   0.000  16.230   0.000  -0.000  26.629
 Approx polarizability:  15.881  -0.000  15.881  -0.000  -0.000  55.963

                      1
                     SG
 Frequencies --   2153.2967
 Red. masses --     12.8481
 Frc consts  --     35.0993
 IR Inten    --     20.1404

 - Thermochemistry -
 -------------------
 Temperature   298.150 Kelvin.  Pressure   1.00000 Atm.
 Atom     1 has atomic number  6 and mass  12.00000

 Molecular mass:    26.00307 amu.
 Principal axes and moments of inertia in atomic units:
                           1         2         3
     Eigenvalues --     0.00000  31.14123  31.14123
           X            0.00000  -0.00000   1.00000
           Y            0.00000   1.00000   0.00000
           Z            1.00000   0.00000   0.00000
 This molecule is a prolate symmetric top.
 Rotational symmetry number  1.
 Rotational temperature (Kelvin)      2.78133
 Rotational constant (GHZ):          57.953441
 Zero-point vibrational energy      12879.6 (Joules/Mol)
                                    3.07829 (Kcal/Mol)
 Vibrational temperatures:   3098.11
          (Kelvin)

 Zero-point correction=                           0.004906 (Hartree/Particle)
 Thermal correction to Energy=                    0.007266
 Thermal correction to Enthalpy=                  0.008211
 Thermal correction to Gibbs Free Energy=        -0.014766
 Sum of electronic and zero-point Energies=            -92.743494
 Sum of electronic and thermal Energies=               -92.741133
 Sum of electronic and thermal Enthalpies=             -92.740189
 Sum of electronic and thermal Free Energies=          -92.763165

                     E (Thermal)             CV                S
                      KCal/Mol        Cal/Mol-Kelvin    Cal/Mol-Kelvin
 Total                    4.560              4.975             48.358
 Electronic               0.000              0.000              1.377
 Translational            0.889              2.981             35.703
 Rotational               0.592              1.987             11.277
 Vibrational              3.078              0.007              0.001

 Optimization completed.
    -- Stationary point found.
 Normal termination of Gaussian 16 at Fri Jun 24 07:02:54 2022.
