 Gaussian 16, Revision B.01,
 Gaussian 16:  ES64L-G16RevB.01 20-Dec-2017

 --------------------
 # b3lyp/gen opt freq
 --------------------

 --------------------------
 isocyanogen, B3LYP/pcseg-2
 --------------------------
 Symbolic Z-matrix:
 Charge =  0 Multiplicity = 1

 SCF Done:  E(RB3LYP) =  -185.690795837     A.U. after   12 cycles
 SCF Done:  E(RB3LYP) =  -185.690939235     A.U. after    9 cycles
 SCF Done:  E(RB3LYP) =  -185.690941611     A.U. after    8 cycles
 Optimization completed.
    -- Stationary point found.
 Normal termination of Gaussian 16 at Fri Jun 17 20:09:47 2022.

 ------------------------------------------------------------------
 #N Geom=AllCheck Guess=TCheck SCRF=Check GenChk RB3LYP/ChkBas Freq
 ------------------------------------------------------------------

 Structure from the checkpoint file:  "/wrk/irikura/Gau-19627.chk"
 --------------------------
 isocyanogen, B3LYP/pcseg-2
 --------------------------
 Charge =  0 Multiplicity = 1

                         Standard orientation:
 ---------------------------------------------------------------------
 Center     Atomic      Atomic             Coordinates (Angstroms)
 Number     Number       Type             X           Y           Z
 ---------------------------------------------------------------------
      1          6           0        0.000000    0.000000    0.613576
      2          7           0        0.000000    0.000000   -0.690951
      3          7           0        0.000000    0.000000    1.766877
      4          6           0        0.000000    0.000000   -1.868823
 ---------------------------------------------------------------------

 SCF Done:  E(RB3LYP) =  -185.690941611     A.U. after    1 cycles

 The electronic state is 1-SG.
 Alpha  occ. eigenvalues --  -14.43687 -14.37391 -10.30421 -10.29625  -1.05220
 Alpha  occ. eigenvalues --   -0.96156  -0.80537  -0.49945  -0.49945  -0.42378
 Alpha  occ. eigenvalues --   -0.37785  -0.37279  -0.37279
 Alpha virt. eigenvalues --   -0.09211  -0.09211   0.02951   0.06170   0.06170
 Alpha virt. eigenvalues --    0.10001   0.14121   0.14121   0.15160   0.17813
 Alpha virt. eigenvalues --    0.21275   0.21275   0.24016   0.33567   0.35804

 Mulliken charges:
               1
     1  C    0.319240
     2  N   -0.312811
     3  N   -0.140834
     4  C    0.134405
 Sum of Mulliken charges =  -0.00000

 Dipole moment (field-independent basis, Debye):
    X=              0.0000    Y=              0.0000    Z=             -0.8502  Tot=              0.8502
 Quadrupole moment (field-independent basis, Debye-Ang):
   XX=            -21.1709   YY=            -21.1709   ZZ=            -30.8243
   XY=              0.0000   XZ=              0.0000   YZ=              0.0000

  Exact polarizability:  19.818  -0.000  19.818  -0.000   0.000  58.274
 Approx polarizability:  27.505  -0.000  27.505  -0.000  -0.000 112.875

                      1                      2                      3
                     PI                     PI                     PI
 Frequencies --    218.3245               218.3245               512.4946
 Red. masses --     13.0879                13.0879                12.6513
 Frc consts  --      0.3676                 0.3676                 1.9578
 IR Inten    --      8.7157                 8.7157                 8.0049

                      4                      5                      6
                     PI                     SG                     SG
 Frequencies --    512.4946               962.3686              2134.0666
 Red. masses --     12.6513                12.9834                13.0174
 Frc consts  --      1.9578                 7.0847                34.9293
 IR Inten    --      8.0049                 0.5664               163.3519

                      7
                     SG
 Frequencies --   2387.9943
 Red. masses --     12.7005
 Frc consts  --     42.6716
 IR Inten    --    116.7521

 - Thermochemistry -
 -------------------
 Temperature   298.150 Kelvin.  Pressure   1.00000 Atm.
 Atom     1 has atomic number  6 and mass  12.00000

 Molecular mass:    52.00615 amu.
 Principal axes and moments of inertia in atomic units:
                           1         2         3
     Eigenvalues --     0.00000 345.78092 345.78092
           X            0.00000   0.70711   0.70711
           Y           -0.00000  -0.70711   0.70711
           Z            1.00000  -0.00000  -0.00000
 This molecule is a prolate symmetric top.
 Rotational symmetry number  1.
 Rotational temperature (Kelvin)      0.25049
 Rotational constant (GHZ):           5.219320
 Zero-point vibrational energy      41546.7 (Joules/Mol)
                                    9.92990 (Kcal/Mol)
 Warning -- explicit consideration of   4 degrees of freedom as
           vibrations may cause significant error
 Vibrational temperatures:    314.12   314.12   737.37   737.37  1384.63
          (Kelvin)           3070.45  3435.79

 Zero-point correction=                           0.015824 (Hartree/Particle)
 Thermal correction to Energy=                    0.019723
 Thermal correction to Enthalpy=                  0.020667
 Thermal correction to Gibbs Free Energy=        -0.007432
 Sum of electronic and zero-point Energies=           -185.675117
 Sum of electronic and thermal Energies=              -185.671219
 Sum of electronic and thermal Enthalpies=            -185.670274
 Sum of electronic and thermal Free Energies=         -185.698374

                     E (Thermal)             CV                S
                      KCal/Mol        Cal/Mol-Kelvin    Cal/Mol-Kelvin
 Total                   12.376             11.469             59.141
 Electronic               0.000              0.000              0.000
 Translational            0.889              2.981             37.769
 Rotational               0.592              1.987             16.060
 Vibrational             10.895              6.501              5.311
 Vibration     1          0.646              1.813              1.973
 Vibration     2          0.646              1.813              1.973
 Vibration     3          0.868              1.222              0.628
 Vibration     4          0.868              1.222              0.628

 Optimization completed.
    -- Stationary point found.
 Normal termination of Gaussian 16 at Fri Jun 17 20:09:59 2022.
