 Gaussian 16, Revision B.01,

 ---------------------------------------
 # b3lyp/gen opt freq CPHF(Grid=OneStep)
 ---------------------------------------

 --------------------------
 isocyanogen, B3LYP/pcseg-2
 --------------------------
 Symbolic Z-matrix:
 Charge =  0 Multiplicity = 1

 SCF Done:  E(RB3LYP) =  -185.690941611     A.U. after   12 cycles
 Optimization completed.
    -- Stationary point found.
 Normal termination of Gaussian 16 at Sat Sep 30 23:53:09 2023.

 ------------------------------------------------------------------
 #N Geom=AllCheck Guess=TCheck SCRF=Check GenChk RB3LYP/ChkBas Freq
 ------------------------------------------------------------------

 Structure from the checkpoint file:  "cncn.chk"
 --------------------------
 isocyanogen, B3LYP/pcseg-2
 --------------------------
 Charge =  0 Multiplicity = 1

 SCF Done:  E(RB3LYP) =  -185.690941611     A.U. after    1 cycles

  Exact polarizability:  19.818   0.000  19.818   0.000   0.000  58.275
 Approx polarizability:  27.505  -0.000  27.505  -0.000  -0.000 112.875

                      1                      2                      3
                     PI                     PI                     PI
 Frequencies --    218.3172               218.3172               512.4939
 Red. masses --     13.0879                13.0879                12.6513
 Frc consts  --      0.3675                 0.3675                 1.9578
 IR Inten    --      8.7159                 8.7159                 8.0049

                      4                      5                      6
                     PI                     SG                     SG
 Frequencies --    512.4939               962.3696              2134.0681
 Red. masses --     12.6513                12.9834                13.0174
 Frc consts  --      1.9578                 7.0847                34.9293
 IR Inten    --      8.0049                 0.5664               163.3540

                      7
                     SG
 Frequencies --   2387.9922
 Red. masses --     12.7006
 Frc consts  --     42.6716
 IR Inten    --    116.7565

 - Thermochemistry -
 -------------------
 Temperature   298.150 Kelvin.  Pressure   1.00000 Atm.
 Atom     1 has atomic number  6 and mass  12.00000

 Molecular mass:    52.00615 amu.
 Principal axes and moments of inertia in atomic units:
                           1         2         3
     Eigenvalues --     0.00000 345.78088 345.78088
           X            0.00000  -0.00000   1.00000
           Y            0.00000   1.00000   0.00000
           Z            1.00000   0.00000   0.00000
 This molecule is a prolate symmetric top.
 Rotational symmetry number  1.
 Rotational temperature (Kelvin)      0.25049
 Rotational constant (GHZ):           5.219320
 Zero-point vibrational energy      41546.6 (Joules/Mol)
                                    9.92988 (Kcal/Mol)
 Warning -- explicit consideration of   4 degrees of freedom as
           vibrations may cause significant error
 Vibrational temperatures:    314.11   314.11   737.36   737.36  1384.64
          (Kelvin)           3070.45  3435.79

 Zero-point correction=                           0.015824 (Hartree/Particle)
 Thermal correction to Energy=                    0.019723
 Thermal correction to Enthalpy=                  0.020667
 Thermal correction to Gibbs Free Energy=        -0.007432
 Sum of electronic and zero-point Energies=           -185.675117
 Sum of electronic and thermal Energies=              -185.671219
 Sum of electronic and thermal Enthalpies=            -185.670274
 Sum of electronic and thermal Free Energies=         -185.698374

                     E (Thermal)             CV                S
                      KCal/Mol        Cal/Mol-Kelvin    Cal/Mol-Kelvin
 Total                   12.376             11.469             59.141
 Electronic               0.000              0.000              0.000
 Translational            0.889              2.981             37.769
 Rotational               0.592              1.987             16.060
 Vibrational             10.895              6.501              5.311
 Vibration     1          0.646              1.813              1.973
 Vibration     2          0.646              1.813              1.973
 Vibration     3          0.868              1.222              0.628
 Vibration     4          0.868              1.222              0.628

 Optimization completed.
    -- Stationary point found.
 Normal termination of Gaussian 16 at Sat Sep 30 23:53:42 2023.
 Gaussian 16:  ES64L-G16RevB.01 20-Dec-2017

 ---------------------------------
 # rohf/gen geom=check guess=check
 ---------------------------------

 -----------------------------
 isocyanogen, ROHF/cc-pVTZ-F12
 -----------------------------
 Structure from the checkpoint file:  "cncn.chk"
 Charge =  0 Multiplicity = 1

                         Standard orientation:
 ---------------------------------------------------------------------
 Center     Atomic      Atomic             Coordinates (Angstroms)
 Number     Number       Type             X           Y           Z
 ---------------------------------------------------------------------
      1          6           0        0.000000    0.000000    0.613576
      2          7           0        0.000000    0.000000   -0.690951
      3          7           0        0.000000    0.000000    1.766877
      4          6           0        0.000000    0.000000   -1.868823
 ---------------------------------------------------------------------

 SCF Done:  E(ROHF) =  -184.634704881     A.U. after   11 cycles

 The electronic state is 1-SG.
 Alpha  occ. eigenvalues --  -15.68088 -15.62028 -11.37246 -11.36437  -1.37051
 Alpha  occ. eigenvalues --   -1.25909  -1.02825  -0.64947  -0.64947  -0.60954
 Alpha  occ. eigenvalues --   -0.55157  -0.48371  -0.48371
 Alpha virt. eigenvalues --    0.04330   0.04625   0.04625   0.05198   0.07288
 Alpha virt. eigenvalues --    0.07288   0.08264   0.10618   0.10618   0.14760
 Alpha virt. eigenvalues --    0.17154   0.17154   0.18411   0.19889   0.19889

 Mulliken charges and spin densities:
               1          2
     1  C    0.440026   0.000000
     2  N   -0.489341   0.000000
     3  N   -0.244688   0.000000
     4  C    0.294003   0.000000
 Sum of Mulliken charges =  -0.00000   0.00000

 Dipole moment (field-independent basis, Debye):
    X=              0.0000    Y=              0.0000    Z=             -1.5796  Tot=              1.5796
 Quadrupole moment (field-independent basis, Debye-Ang):
   XX=            -21.3612   YY=            -21.3612   ZZ=            -30.2311
   XY=              0.0000   XZ=              0.0000   YZ=              0.0000

 Normal termination of Gaussian 16 at Sat Sep 30 23:53:55 2023.
