 Gaussian 16, Revision B.01,
 Gaussian 16:  ES64L-G16RevB.01 20-Dec-2017

 --------------------
 # b3lyp/gen opt freq
 --------------------

 -----------------
 CO, B3LYP/pcseg-2
 -----------------
 Symbolic Z-matrix:
 Charge =  0 Multiplicity = 1

 SCF Done:  E(RB3LYP) =  -113.314089481     A.U. after   12 cycles
 SCF Done:  E(RB3LYP) =  -113.360717352     A.U. after   10 cycles
 SCF Done:  E(RB3LYP) =  -113.361320350     A.U. after    8 cycles
 SCF Done:  E(RB3LYP) =  -113.361320995     A.U. after    6 cycles
 Optimization completed.
    -- Stationary point found.
 Normal termination of Gaussian 16 at Thu Feb  3 12:14:57 2022.

 ------------------------------------------------------------------
 #N Geom=AllCheck Guess=TCheck SCRF=Check GenChk RB3LYP/ChkBas Freq
 ------------------------------------------------------------------

 Structure from the checkpoint file:  "/wrk/irikura/Gau-22803.chk"
 -----------------
 CO, B3LYP/pcseg-2
 -----------------
 Charge =  0 Multiplicity = 1

                         Standard orientation:
 ---------------------------------------------------------------------
 Center     Atomic      Atomic             Coordinates (Angstroms)
 Number     Number       Type             X           Y           Z
 ---------------------------------------------------------------------
      1          6           0        0.000000    0.000000   -0.642635
      2          8           0        0.000000    0.000000    0.481976
 ---------------------------------------------------------------------

 SCF Done:  E(RB3LYP) =  -113.361320995     A.U. after    1 cycles

 The electronic state is 1-SG.
 Alpha  occ. eigenvalues --  -19.23536 -10.29366  -1.17444  -0.58410  -0.48635
 Alpha  occ. eigenvalues --   -0.48635  -0.38613
 Alpha virt. eigenvalues --   -0.03857  -0.03857   0.09956   0.15892   0.16854
 Alpha virt. eigenvalues --    0.16854   0.30075   0.39211   0.39211   0.58336
 Alpha virt. eigenvalues --    0.66482   0.86973   0.86973   1.06841   1.06841

 Mulliken charges:
               1
     1  C    0.104893
     2  O   -0.104893
 Sum of Mulliken charges =   0.00000

 Dipole moment (field-independent basis, Debye):
    X=              0.0000    Y=              0.0000    Z=              0.0896  Tot=              0.0896
 Quadrupole moment (field-independent basis, Debye-Ang):
   XX=            -10.2720   YY=            -10.2720   ZZ=            -12.4096
   XY=              0.0000   XZ=              0.0000   YZ=              0.0000

  Exact polarizability:  10.432   0.000  10.432  -0.000  -0.000  15.077
 Approx polarizability:  13.859  -0.000  13.859  -0.000  -0.000  24.313

                      1
                     SG
 Frequencies --   2212.3789
 Red. masses --     13.4388
 Frc consts  --     38.7550
 IR Inten    --     80.5335

 - Thermochemistry -
 -------------------
 Temperature   298.150 Kelvin.  Pressure   1.00000 Atm.
 Atom     1 has atomic number  6 and mass  12.00000

 Molecular mass:    27.99491 amu.
 Principal axes and moments of inertia in atomic units:
                           1         2         3
     Eigenvalues --     0.00000  30.96613  30.96613
           X            0.00000  -0.00000   1.00000
           Y            0.00000   1.00000   0.00000
           Z            1.00000   0.00000   0.00000
 This molecule is a prolate symmetric top.
 Rotational symmetry number  1.
 Rotational temperature (Kelvin)      2.79705
 Rotational constant (GHZ):          58.281139
 Zero-point vibrational energy      13233.0 (Joules/Mol)
                                    3.16275 (Kcal/Mol)
 Vibrational temperatures:   3183.12
          (Kelvin)

 Zero-point correction=                           0.005040 (Hartree/Particle)
 Thermal correction to Energy=                    0.007401
 Thermal correction to Enthalpy=                  0.008345
 Thermal correction to Gibbs Free Energy=        -0.014076
 Sum of electronic and zero-point Energies=           -113.356281
 Sum of electronic and thermal Energies=              -113.353920
 Sum of electronic and thermal Enthalpies=            -113.352976
 Sum of electronic and thermal Free Energies=         -113.375397

                     E (Thermal)             CV                S
                      KCal/Mol        Cal/Mol-Kelvin    Cal/Mol-Kelvin
 Total                    4.644              4.973             47.189
 Electronic               0.000              0.000              0.000
 Translational            0.889              2.981             35.923
 Rotational               0.592              1.987             11.266
 Vibrational              3.163              0.005              0.001

 Optimization completed.
    -- Stationary point found.
 Normal termination of Gaussian 16 at Thu Feb  3 12:15:06 2022.
