 Gaussian 16, Revision B.01,
 Gaussian 16:  ES64L-G16RevB.01 20-Dec-2017

 --------------------
 # b3lyp/gen opt freq
 --------------------

 ------------------
 CO2, B3LYP/pcseg-2
 ------------------
 Symbolic Z-matrix:
 Charge =  0 Multiplicity = 1

 SCF Done:  E(RB3LYP) =  -188.609316053     A.U. after   10 cycles
 SCF Done:  E(RB3LYP) =  -188.664861607     A.U. after   10 cycles
 SCF Done:  E(RB3LYP) =  -188.667915395     A.U. after    9 cycles
 SCF Done:  E(RB3LYP) =  -188.667916765     A.U. after    6 cycles
 Optimization completed.
    -- Stationary point found.
 Normal termination of Gaussian 16 at Tue Feb  1 13:41:24 2022.

 ------------------------------------------------------------------
 #N Geom=AllCheck Guess=TCheck SCRF=Check GenChk RB3LYP/ChkBas Freq
 ------------------------------------------------------------------

 Structure from the checkpoint file:  "/wrk/irikura/Gau-17666.chk"
 ------------------
 CO2, B3LYP/pcseg-2
 ------------------
 Charge =  0 Multiplicity = 1

                         Standard orientation:
 ---------------------------------------------------------------------
 Center     Atomic      Atomic             Coordinates (Angstroms)
 Number     Number       Type             X           Y           Z
 ---------------------------------------------------------------------
      1          6           0        0.000000    0.000000    0.000000
      2          8           0        0.000000    0.000000    1.159424
      3          8           0        0.000000    0.000000   -1.159424
 ---------------------------------------------------------------------

 SCF Done:  E(RB3LYP) =  -188.667916765     A.U. after    1 cycles

 The electronic state is 1-SGG.
 Alpha  occ. eigenvalues --  -19.21249 -19.21247 -10.36803  -1.17262  -1.13320
 Alpha  occ. eigenvalues --   -0.57329  -0.53180  -0.52922  -0.52922  -0.38477
 Alpha  occ. eigenvalues --   -0.38477
 Alpha virt. eigenvalues --    0.00922   0.02137   0.02137   0.13149   0.14031
 Alpha virt. eigenvalues --    0.14031   0.28063   0.30370   0.36204   0.36311
 Alpha virt. eigenvalues --    0.36311   0.49354   0.49354   0.71505   0.72186

 Mulliken charges:
               1
     1  C    0.595096
     2  O   -0.297548
     3  O   -0.297548
 Sum of Mulliken charges =  -0.00000

 Dipole moment (field-independent basis, Debye):
    X=             -0.0000    Y=             -0.0000    Z=             -0.0000  Tot=              0.0000
 Quadrupole moment (field-independent basis, Debye-Ang):
   XX=            -14.8398   YY=            -14.8398   ZZ=            -19.5570
   XY=              0.0000   XZ=              0.0000   YZ=              0.0000

  Exact polarizability:   9.996   0.000   9.996  -0.000  -0.000  25.332
 Approx polarizability:  12.830  -0.000  12.830  -0.000  -0.000  46.753

                      1                      2                      3
                     PIU                    PIU                    SGG
 Frequencies --    673.6117               673.6117              1371.5136
 Red. masses --     12.8774                12.8774                15.9949
 Frc consts  --      3.4427                 3.4427                17.7269
 IR Inten    --     33.5715                33.5715                 0.0000

                      4
                     SGU
 Frequencies --   2404.7136
 Red. masses --     12.8774
 Frc consts  --     43.8737
 IR Inten    --    684.0056

 - Thermochemistry -
 -------------------
 Temperature   298.150 Kelvin.  Pressure   1.00000 Atm.
 Atom     1 has atomic number  6 and mass  12.00000

 Molecular mass:    43.98983 amu.
 Principal axes and moments of inertia in atomic units:
                           1         2         3
     Eigenvalues --     0.00000 153.56579 153.56579
           X           -0.00000   1.00000  -0.00000
           Y            0.00000   0.00000   1.00000
           Z            1.00000   0.00000  -0.00000
 This molecule is a prolate symmetric top.
 Rotational symmetry number  2.
 Rotational temperature (Kelvin)      0.56402
 Rotational constant (GHZ):          11.752234
 Zero-point vibrational energy      30645.0 (Joules/Mol)
                                    7.32434 (Kcal/Mol)
 Vibrational temperatures:    969.18   969.18  1973.30  3459.85
          (Kelvin)

 Zero-point correction=                           0.011672 (Hartree/Particle)
 Thermal correction to Energy=                    0.014288
 Thermal correction to Enthalpy=                  0.015233
 Thermal correction to Gibbs Free Energy=        -0.009017
 Sum of electronic and zero-point Energies=           -188.656245
 Sum of electronic and thermal Energies=              -188.653628
 Sum of electronic and thermal Enthalpies=            -188.652684
 Sum of electronic and thermal Free Energies=         -188.676934

                     E (Thermal)             CV                S
                      KCal/Mol        Cal/Mol-Kelvin    Cal/Mol-Kelvin
 Total                    8.966              6.848             51.039
 Electronic               0.000              0.000              0.000
 Translational            0.889              2.981             37.270
 Rotational               0.592              1.987             13.070
 Vibrational              7.485              1.880              0.698

 Optimization completed.
    -- Stationary point found.
 Normal termination of Gaussian 16 at Tue Feb  1 13:41:46 2022.
