 Gaussian 16, Revision B.01,
 Gaussian 16:  ES64L-G16RevB.01 20-Dec-2017

 --------------------
 # b3lyp/gen opt freq
 --------------------

 ----------------------------
 carbonic acid, B3LYP/pcseg-2
 ----------------------------
 Symbolic Z-matrix:
 Charge =  0 Multiplicity = 1

 SCF Done:  E(RB3LYP) =  -265.127798798     A.U. after   12 cycles
 SCF Done:  E(RB3LYP) =  -265.127818070     A.U. after    8 cycles
 SCF Done:  E(RB3LYP) =  -265.127818588     A.U. after    6 cycles
 Optimization completed.
    -- Stationary point found.
 Normal termination of Gaussian 16 at Fri Jun 17 17:17:32 2022.

 ------------------------------------------------------------------
 #N Geom=AllCheck Guess=TCheck SCRF=Check GenChk RB3LYP/ChkBas Freq
 ------------------------------------------------------------------

 Structure from the checkpoint file:  "/wrk/irikura/Gau-30745.chk"
 ----------------------------
 carbonic acid, B3LYP/pcseg-2
 ----------------------------
 Charge =  0 Multiplicity = 1

                         Standard orientation:
 ---------------------------------------------------------------------
 Center     Atomic      Atomic             Coordinates (Angstroms)
 Number     Number       Type             X           Y           Z
 ---------------------------------------------------------------------
      1          6           0       -0.000000   -0.000000    0.101473
      2          8           0       -0.000000   -0.000000    1.303655
      3          8           0        0.000000    1.088257   -0.678423
      4          8           0       -0.000000   -1.088257   -0.678423
      5          1           0        0.000000    1.854057   -0.091658
      6          1           0       -0.000000   -1.854057   -0.091658
 ---------------------------------------------------------------------

 SCF Done:  E(RB3LYP) =  -265.127818588     A.U. after    1 cycles

 The electronic state is 1-A1.
 Alpha  occ. eigenvalues --  -19.19439 -19.19438 -19.12786 -10.37034  -1.16826
 Alpha  occ. eigenvalues --   -1.07956  -1.04280  -0.69569  -0.56629  -0.51621
 Alpha  occ. eigenvalues --   -0.50461  -0.47619  -0.42577  -0.37521  -0.34199
 Alpha  occ. eigenvalues --   -0.31450
 Alpha virt. eigenvalues --   -0.00819   0.01826   0.02204   0.12011   0.14353
 Alpha virt. eigenvalues --    0.15116   0.22457   0.24504   0.25032   0.26112
 Alpha virt. eigenvalues --    0.31636   0.32051   0.35062   0.37361   0.39837

 Mulliken charges:
               1
     1  C    0.652000
     2  O   -0.450358
     3  O   -0.325560
     4  O   -0.325560
     5  H    0.224739
     6  H    0.224739
 Sum of Mulliken charges =   0.00000

 Dipole moment (field-independent basis, Debye):
    X=             -0.0000    Y=              0.0000    Z=             -0.2599  Tot=              0.2599
 Quadrupole moment (field-independent basis, Debye-Ang):
   XX=            -22.3485   YY=            -14.3902   ZZ=            -29.2554
   XY=              0.0000   XZ=             -0.0000   YZ=              0.0000

  Exact polarizability:  16.179   0.000  28.082  -0.000  -0.000  27.297
 Approx polarizability:  21.618   0.000  36.059  -0.000  -0.000  41.733

                      1                      2                      3
                     A2                     A1                     B1
 Frequencies --    526.6838               547.8879               597.4674
 Red. masses --      1.1786                 4.7476                 1.0534
 Frc consts  --      0.1926                 0.8397                 0.2216
 IR Inten    --      0.0000                 6.9413               216.4773

                      4                      5                      6
                     B2                     B1                     A1
 Frequencies --    601.8506               800.3695               977.2638
 Red. masses --      4.8760                10.9224                 6.0905
 Frc consts  --      1.0406                 4.1224                 3.4271
 IR Inten    --     48.0805                56.9295                17.8826

                      7                      8                      9
                     B2                     A1                     B2
 Frequencies --   1150.5243              1288.7009              1455.9508
 Red. masses --      1.9442                 1.3619                 2.7587
 Frc consts  --      1.5163                 1.3326                 3.4454
 IR Inten    --    458.9060                30.8563               129.9596

                     10                     11                     12
                     A1                     B2                     A1
 Frequencies --   1821.4508              3800.3154              3803.0560
 Red. masses --      8.9769                 1.0641                 1.0660
 Frc consts  --     17.5473                 9.0546                 9.0837
 IR Inten    --    563.7581               191.9414                13.6961

 - Thermochemistry -
 -------------------
 Temperature   298.150 Kelvin.  Pressure   1.00000 Atm.
 Atom     1 has atomic number  6 and mass  12.00000

 Molecular mass:    62.00039 amu.
 Principal axes and moments of inertia in atomic units:
                           1         2         3
     Eigenvalues --   150.15306 160.03554 310.18860
           X            0.00000   0.00000   1.00000
           Y            1.00000   0.00000   0.00000
           Z            0.00000   1.00000   0.00000
 This molecule is an asymmetric top.
 Rotational symmetry number  2.
 Rotational temperatures (Kelvin)      0.57684     0.54122     0.27923
 Rotational constants (GHZ):          12.01934    11.27713     5.81821
 Zero-point vibrational energy     103904.8 (Joules/Mol)
                                   24.83384 (Kcal/Mol)
 Warning -- explicit consideration of   4 degrees of freedom as
           vibrations may cause significant error
 Vibrational temperatures:    757.78   788.29   859.62   865.93  1151.55
          (Kelvin)           1406.06  1655.35  1854.15  2094.79  2620.66
                             5467.81  5471.75

 Zero-point correction=                           0.039575 (Hartree/Particle)
 Thermal correction to Energy=                    0.043282
 Thermal correction to Enthalpy=                  0.044226
 Thermal correction to Gibbs Free Energy=         0.014345
 Sum of electronic and zero-point Energies=           -265.088243
 Sum of electronic and thermal Energies=              -265.084537
 Sum of electronic and thermal Enthalpies=            -265.083592
 Sum of electronic and thermal Free Energies=         -265.113474

                     E (Thermal)             CV                S
                      KCal/Mol        Cal/Mol-Kelvin    Cal/Mol-Kelvin
 Total                   27.160             11.919             62.891
 Electronic               0.000              0.000              0.000
 Translational            0.889              2.981             38.293
 Rotational               0.889              2.981             22.148
 Vibrational             25.382              5.957              2.450
 Vibration     1          0.882              1.191              0.595
 Vibration     2          0.903              1.144              0.549
 Vibration     3          0.955              1.037              0.454
 Vibration     4          0.960              1.028              0.446

 Optimization completed.
    -- Stationary point found.
 Normal termination of Gaussian 16 at Fri Jun 17 17:17:52 2022.
