 Gaussian 16, Revision B.01,

 ---------------------------------------
 # b3lyp/gen opt freq CPHF(Grid=OneStep)
 ---------------------------------------

 ------------------------------
 cyclopentadiene, B3LYP/pcseg-2
 ------------------------------
 Symbolic Z-matrix:
 Charge =  0 Multiplicity = 1

 SCF Done:  E(RB3LYP) =  -194.179743603     A.U. after   11 cycles
 Optimization completed.
    -- Stationary point found.
 Normal termination of Gaussian 16 at Wed Sep 27 17:44:38 2023.

 ------------------------------------------------------------------
 #N Geom=AllCheck Guess=TCheck SCRF=Check GenChk RB3LYP/ChkBas Freq
 ------------------------------------------------------------------

 Structure from the checkpoint file:  "CpH.chk"
 ------------------------------
 cyclopentadiene, B3LYP/pcseg-2
 ------------------------------
 Charge =  0 Multiplicity = 1

 SCF Done:  E(RB3LYP) =  -194.179743603     A.U. after    1 cycles

  Exact polarizability:  37.750  -0.000  62.033  -0.000   0.000  66.636
 Approx polarizability:  56.994   0.000  91.300  -0.000   0.000 107.638

                      1                      2                      3
                     B1                     A2                     B1
 Frequencies --    351.6232               526.8213               682.8047
 Red. masses --      1.5105                 2.3311                 1.1746
 Frc consts  --      0.1100                 0.3812                 0.3226
 IR Inten    --      7.1893                 0.0000                81.1832

                      4                      5                      6
                     A2                     A1                     B2
 Frequencies --    716.9656               819.3505               821.0546
 Red. masses --      1.2764                 5.0512                 5.6204
 Frc consts  --      0.3866                 1.9980                 2.2323
 IR Inten    --      0.0000                 0.0030                 5.8051

                      7                      8                      9
                     B1                     A1                     B1
 Frequencies --    919.4846               924.7502               965.4306
 Red. masses --      1.8485                 2.1657                 1.3311
 Frc consts  --      0.9208                 1.0912                 0.7310
 IR Inten    --     33.0905                11.0014                 0.1447

                     10                     11                     12
                     A2                     B2                     A1
 Frequencies --    965.4478               969.7095              1013.4040
 Red. masses --      1.3377                 1.6275                 2.6288
 Frc consts  --      0.7346                 0.9017                 1.5906
 IR Inten    --      0.0000                14.9338                 0.2600

                     13                     14                     15
                     B2                     A2                     A1
 Frequencies --   1115.4970              1124.4198              1133.5678
 Red. masses --      1.1258                 1.1400                 1.2496
 Frc consts  --      0.8254                 0.8492                 0.9460
 IR Inten    --      2.1262                 0.0000                 0.2232

                     16                     17                     18
                     B2                     B2                     A1
 Frequencies --   1268.2300              1322.4885              1400.8739
 Red. masses --      1.7700                 1.5684                 1.5136
 Frc consts  --      1.6774                 1.6162                 1.7501
 IR Inten    --      2.2840                 0.7154                22.4639

                     19                     20                     21
                     A1                     A1                     B2
 Frequencies --   1413.8046              1547.3083              1634.8816
 Red. masses --      1.3213                 5.5724                 5.1358
 Frc consts  --      1.5560                 7.8604                 8.0878
 IR Inten    --      4.5478                 1.0166                 0.0001

                     22                     23                     24
                     A1                     B1                     B2
 Frequencies --   3014.3870              3034.9743              3194.6610
 Red. masses --      1.0605                 1.0980                 1.0868
 Frc consts  --      5.6776                 5.9586                 6.5350
 IR Inten    --      9.1055                 5.8867                 3.3731

                     25                     26                     27
                     A1                     B2                     A1
 Frequencies --   3204.7356              3222.7281              3228.8692
 Red. masses --      1.0887                 1.0990                 1.1053
 Frc consts  --      6.5878                 6.7248                 6.7897
 IR Inten    --     11.5029                16.3865                 1.8086

 - Thermochemistry -
 -------------------
 Temperature   298.150 Kelvin.  Pressure   1.00000 Atm.
 Atom     1 has atomic number  1 and mass   1.00783

 Molecular mass:    66.04695 amu.
 Principal axes and moments of inertia in atomic units:
                           1         2         3
     Eigenvalues --   212.18088 218.16636 419.33850
           X            0.00000   0.00000   1.00000
           Y            1.00000   0.00000   0.00000
           Z            0.00000   1.00000   0.00000
 This molecule is an asymmetric top.
 Rotational symmetry number  2.
 Rotational temperatures (Kelvin)      0.40821     0.39701     0.20655
 Rotational constants (GHZ):           8.50567     8.27232     4.30378
 Zero-point vibrational energy     242472.7 (Joules/Mol)
                                   57.95237 (Kcal/Mol)
 Warning -- explicit consideration of   2 degrees of freedom as
           vibrations may cause significant error
 Vibrational temperatures:    505.91   757.98   982.40  1031.55  1178.86
          (Kelvin)           1181.31  1322.93  1330.51  1389.04  1389.06
                             1395.20  1458.06  1604.95  1617.79  1630.95
                             1824.70  1902.77  2015.55  2034.15  2226.23
                             2352.23  4337.03  4366.65  4596.40  4610.90
                             4636.79  4645.62

 Zero-point correction=                           0.092353 (Hartree/Particle)
 Thermal correction to Energy=                    0.096493
 Thermal correction to Enthalpy=                  0.097438
 Thermal correction to Gibbs Free Energy=         0.066425
 Sum of electronic and zero-point Energies=           -194.087391
 Sum of electronic and thermal Energies=              -194.083250
 Sum of electronic and thermal Enthalpies=            -194.082306
 Sum of electronic and thermal Free Energies=         -194.113319

                     E (Thermal)             CV                S
                      KCal/Mol        Cal/Mol-Kelvin    Cal/Mol-Kelvin
 Total                   60.551             15.566             65.272
 Electronic               0.000              0.000              0.000
 Translational            0.889              2.981             38.482
 Rotational               0.889              2.981             23.099
 Vibrational             58.773              9.605              3.691
 Vibration     1          0.728              1.572              1.159
 Vibration     2          0.882              1.191              0.594

 Optimization completed.
    -- Stationary point found.
 Normal termination of Gaussian 16 at Wed Sep 27 17:49:53 2023.
 Gaussian 16:  ES64L-G16RevB.01 20-Dec-2017

 ---------------------------------
 # rohf/gen geom=check guess=check
 ---------------------------------

 ---------------------------------
 cyclopentadiene, ROHF/cc-pVTZ-F12
 ---------------------------------
 Structure from the checkpoint file:  "CpH.chk"
 Charge =  0 Multiplicity = 1

                         Standard orientation:
 ---------------------------------------------------------------------
 Center     Atomic      Atomic             Coordinates (Angstroms)
 Number     Number       Type             X           Y           Z
 ---------------------------------------------------------------------
      1          1           0        0.874475   -0.000000    1.873980
      2          1           0       -0.874475    0.000000    1.873980
      3          1           0        0.000000    2.205138    0.606574
      4          1           0       -0.000000   -2.205138    0.606574
      5          1           0        0.000000    1.344206   -1.877978
      6          1           0       -0.000000   -1.344206   -1.877978
      7          6           0        0.000000    1.176633    0.280612
      8          6           0       -0.000000   -1.176633    0.280612
      9          6           0        0.000000    0.000000    1.213303
     10          6           0        0.000000    0.732599   -0.987693
     11          6           0       -0.000000   -0.732599   -0.987693
 ---------------------------------------------------------------------

 SCF Done:  E(ROHF) =  -192.869977882     A.U. after   11 cycles

 The electronic state is 1-A1.
 Alpha  occ. eigenvalues --  -11.22880 -11.22570 -11.22518 -11.22374 -11.22352
 Alpha  occ. eigenvalues --   -1.15125  -0.96435  -0.95485  -0.75552  -0.72692
 Alpha  occ. eigenvalues --   -0.69623  -0.59222  -0.56161  -0.52869  -0.50741
 Alpha  occ. eigenvalues --   -0.50236  -0.41403  -0.30791
 Alpha virt. eigenvalues --    0.05195   0.05277   0.05390   0.06927   0.07051
 Alpha virt. eigenvalues --    0.08072   0.09300   0.10766   0.10923   0.11901
 Alpha virt. eigenvalues --    0.12167   0.12383   0.12603   0.13646   0.13903

 Mulliken charges and spin densities:
               1          2
     1  H    0.061187   0.000000
     2  H    0.061187   0.000000
     3  H    0.154616   0.000000
     4  H    0.154616   0.000000
     5  H    0.154647   0.000000
     6  H    0.154647   0.000000
     7  C   -0.185429   0.000000
     8  C   -0.185429   0.000000
     9  C    0.019173   0.000000
    10  C   -0.194608   0.000000
    11  C   -0.194608   0.000000
 Sum of Mulliken charges =  -0.00000   0.00000

 Dipole moment (field-independent basis, Debye):
    X=             -0.0000    Y=             -0.0000    Z=              0.3893  Tot=              0.3893
 Quadrupole moment (field-independent basis, Debye-Ang):
   XX=            -33.7792   YY=            -29.1549   ZZ=            -27.2952
   XY=              0.0000   XZ=             -0.0000   YZ=              0.0000

 Normal termination of Gaussian 16 at Wed Sep 27 17:51:33 2023.
