 Gaussian 16, Revision B.01,
 Gaussian 16:  ES64L-G16RevB.01 20-Dec-2017

 --------------------
 # b3lyp/gen opt freq
 --------------------

 ------------------------------
 cyclopentadiene, B3LYP/pcseg-2
 ------------------------------
 Symbolic Z-matrix:
 Charge =  0 Multiplicity = 1

 SCF Done:  E(RB3LYP) =  -194.179527990     A.U. after   11 cycles
 SCF Done:  E(RB3LYP) =  -194.179741980     A.U. after    8 cycles
 SCF Done:  E(RB3LYP) =  -194.179743603     A.U. after    6 cycles
 Optimization completed.
    -- Stationary point found.
 Normal termination of Gaussian 16 at Thu Jun 23 09:29:10 2022.

 ------------------------------------------------------------------
 #N Geom=AllCheck Guess=TCheck SCRF=Check GenChk RB3LYP/ChkBas Freq
 ------------------------------------------------------------------

 Structure from the checkpoint file:  "/wrk/irikura/Gau-5898.chk"
 ------------------------------
 cyclopentadiene, B3LYP/pcseg-2
 ------------------------------
 Charge =  0 Multiplicity = 1

                         Standard orientation:
 ---------------------------------------------------------------------
 Center     Atomic      Atomic             Coordinates (Angstroms)
 Number     Number       Type             X           Y           Z
 ---------------------------------------------------------------------
      1          1           0        0.874475   -0.000000    1.873980
      2          1           0       -0.874475    0.000000    1.873980
      3          1           0        0.000000    2.205138    0.606574
      4          1           0       -0.000000   -2.205138    0.606574
      5          1           0        0.000000    1.344206   -1.877978
      6          1           0       -0.000000   -1.344206   -1.877978
      7          6           0        0.000000    1.176633    0.280612
      8          6           0       -0.000000   -1.176633    0.280612
      9          6           0        0.000000    0.000000    1.213303
     10          6           0        0.000000    0.732599   -0.987693
     11          6           0       -0.000000   -0.732599   -0.987693
 ---------------------------------------------------------------------

 SCF Done:  E(RB3LYP) =  -194.179743603     A.U. after    1 cycles

 The electronic state is 1-A1.
 Alpha  occ. eigenvalues --  -10.17839 -10.16943 -10.16917 -10.16834 -10.16826
 Alpha  occ. eigenvalues --   -0.85982  -0.70795  -0.70630  -0.55463  -0.53279
 Alpha  occ. eigenvalues --   -0.51828  -0.44039  -0.40275  -0.38032  -0.36315
 Alpha  occ. eigenvalues --   -0.36288  -0.30679  -0.22634
 Alpha virt. eigenvalues --   -0.02774   0.02026   0.04647   0.04756   0.05998
 Alpha virt. eigenvalues --    0.06847   0.07093   0.07418   0.11809   0.15364
 Alpha virt. eigenvalues --    0.16748   0.17450   0.18481   0.19758   0.20557

 Mulliken charges:
               1
     1  H    0.042458
     2  H    0.042458
     3  H    0.033554
     4  H    0.033554
     5  H    0.027516
     6  H    0.027516
     7  C   -0.091782
     8  C   -0.091782
     9  C    0.051681
    10  C   -0.037587
    11  C   -0.037587
 Sum of Mulliken charges =   0.00000

 Dipole moment (field-independent basis, Debye):
    X=              0.0000    Y=              0.0000    Z=              0.4798  Tot=              0.4798
 Quadrupole moment (field-independent basis, Debye-Ang):
   XX=            -33.2492   YY=            -29.2168   ZZ=            -27.5187
   XY=             -0.0000   XZ=              0.0000   YZ=              0.0000

  Exact polarizability:  37.748  -0.000  62.031  -0.000   0.000  66.636
 Approx polarizability:  56.994   0.000  91.300   0.000   0.000 107.638

                      1                      2                      3
                     B1                     A2                     B1
 Frequencies --    351.6216               526.8204               682.8027
 Red. masses --      1.5105                 2.3311                 1.1746
 Frc consts  --      0.1100                 0.3812                 0.3226
 IR Inten    --      7.1896                 0.0000                81.1869

                      4                      5                      6
                     A2                     A1                     B2
 Frequencies --    716.9684               819.3529               821.0522
 Red. masses --      1.2764                 5.0513                 5.6204
 Frc consts  --      0.3866                 1.9980                 2.2323
 IR Inten    --      0.0000                 0.0029                 5.8042

                      7                      8                      9
                     B1                     A1                     B1
 Frequencies --    919.4838               924.7529               965.4305
 Red. masses --      1.8485                 2.1656                 1.3311
 Frc consts  --      0.9208                 1.0912                 0.7310
 IR Inten    --     33.0899                11.0007                 0.1447

                     10                     11                     12
                     A2                     B2                     A1
 Frequencies --    965.4466               969.7107              1013.4063
 Red. masses --      1.3377                 1.6274                 2.6288
 Frc consts  --      0.7346                 0.9017                 1.5906
 IR Inten    --      0.0000                14.9316                 0.2598

                     13                     14                     15
                     B2                     A2                     A1
 Frequencies --   1115.4981              1124.4204              1133.5695
 Red. masses --      1.1258                 1.1400                 1.2496
 Frc consts  --      0.8254                 0.8492                 0.9460
 IR Inten    --      2.1255                 0.0000                 0.2233

                     16                     17                     18
                     B2                     B2                     A1
 Frequencies --   1268.2294              1322.4890              1400.8749
 Red. masses --      1.7700                 1.5684                 1.5136
 Frc consts  --      1.6774                 1.6162                 1.7501
 IR Inten    --      2.2846                 0.7155                22.4666

                     19                     20                     21
                     A1                     A1                     B2
 Frequencies --   1413.8077              1547.3120              1634.8927
 Red. masses --      1.3213                 5.5723                 5.1358
 Frc consts  --      1.5561                 7.8603                 8.0879
 IR Inten    --      4.5478                 1.0169                 0.0001

                     22                     23                     24
                     A1                     B1                     B2
 Frequencies --   3014.3897              3034.9785              3194.6647
 Red. masses --      1.0605                 1.0980                 1.0868
 Frc consts  --      5.6776                 5.9586                 6.5350
 IR Inten    --      9.1054                 5.8877                 3.3713

                     25                     26                     27
                     A1                     B2                     A1
 Frequencies --   3204.7376              3222.7266              3228.8680
 Red. masses --      1.0887                 1.0990                 1.1053
 Frc consts  --      6.5878                 6.7248                 6.7897
 IR Inten    --     11.5002                16.3899                 1.8103

 - Thermochemistry -
 -------------------
 Temperature   298.150 Kelvin.  Pressure   1.00000 Atm.
 Atom     1 has atomic number  1 and mass   1.00783

 Molecular mass:    66.04695 amu.
 Principal axes and moments of inertia in atomic units:
                           1         2         3
     Eigenvalues --   212.18097 218.16625 419.33849
           X            0.00000   0.00000   1.00000
           Y            1.00000   0.00000  -0.00000
           Z            0.00000   1.00000   0.00000
 This molecule is an asymmetric top.
 Rotational symmetry number  2.
 Rotational temperatures (Kelvin)      0.40821     0.39701     0.20655
 Rotational constants (GHZ):           8.50567     8.27232     4.30378
 Zero-point vibrational energy     242472.9 (Joules/Mol)
                                   57.95242 (Kcal/Mol)
 Warning -- explicit consideration of   2 degrees of freedom as
           vibrations may cause significant error
 Vibrational temperatures:    505.91   757.98   982.40  1031.56  1178.87
          (Kelvin)           1181.31  1322.93  1330.51  1389.04  1389.06
                             1395.20  1458.07  1604.95  1617.79  1630.95
                             1824.70  1902.77  2015.55  2034.15  2226.24
                             2352.25  4337.03  4366.66  4596.41  4610.90
                             4636.78  4645.62

 Zero-point correction=                           0.092353 (Hartree/Particle)
 Thermal correction to Energy=                    0.096493
 Thermal correction to Enthalpy=                  0.097438
 Thermal correction to Gibbs Free Energy=         0.066425
 Sum of electronic and zero-point Energies=           -194.087391
 Sum of electronic and thermal Energies=              -194.083250
 Sum of electronic and thermal Enthalpies=            -194.082306
 Sum of electronic and thermal Free Energies=         -194.113319

                     E (Thermal)             CV                S
                      KCal/Mol        Cal/Mol-Kelvin    Cal/Mol-Kelvin
 Total                   60.551             15.566             65.272
 Electronic               0.000              0.000              0.000
 Translational            0.889              2.981             38.482
 Rotational               0.889              2.981             23.099
 Vibrational             58.773              9.605              3.691
 Vibration     1          0.728              1.572              1.159
 Vibration     2          0.882              1.191              0.594

 Optimization completed.
    -- Stationary point found.
 Normal termination of Gaussian 16 at Thu Jun 23 09:31:17 2022.
