 Gaussian 16, Revision B.01,
 Gaussian 16:  ES64L-G16RevB.01 20-Dec-2017

 --------------------
 # b3lyp/gen opt freq
 --------------------

 -------------------------------------------
 5-methyl-1,3-cyclopentadiene, B3LYP/pcseg-2
 -------------------------------------------
 Symbolic Z-matrix:
 Charge =  0 Multiplicity = 1

 SCF Done:  E(RB3LYP) =  -233.508146708     A.U. after   13 cycles
 SCF Done:  E(RB3LYP) =  -233.508246373     A.U. after    9 cycles
 SCF Done:  E(RB3LYP) =  -233.508249841     A.U. after    7 cycles
 SCF Done:  E(RB3LYP) =  -233.508251874     A.U. after    7 cycles
 SCF Done:  E(RB3LYP) =  -233.508252332     A.U. after    7 cycles
 Optimization completed.
    -- Stationary point found.
 Normal termination of Gaussian 16 at Fri Jun 17 17:19:52 2022.

 ------------------------------------------------------------------
 #N Geom=AllCheck Guess=TCheck SCRF=Check GenChk RB3LYP/ChkBas Freq
 ------------------------------------------------------------------

 Structure from the checkpoint file:  "/wrk/irikura/Gau-31429.chk"
 -------------------------------------------
 5-methyl-1,3-cyclopentadiene, B3LYP/pcseg-2
 -------------------------------------------
 Charge =  0 Multiplicity = 1

                         Standard orientation:
 ---------------------------------------------------------------------
 Center     Atomic      Atomic             Coordinates (Angstroms)
 Number     Number       Type             X           Y           Z
 ---------------------------------------------------------------------
      1          6           0        0.237557    0.788358    0.000000
      2          6           0        0.226718   -0.155570    1.173773
      3          6           0        0.226718   -0.155570   -1.173773
      4          6           0        0.226718   -1.423964    0.733195
      5          6           0        0.226718   -1.423964   -0.733195
      6          1           0        1.191698    1.334603    0.000000
      7          6           0       -0.899954    1.821367    0.000000
      8          1           0        0.223167    0.171999    2.202629
      9          1           0        0.223167    0.171999   -2.202629
     10          1           0        0.225994   -2.313618    1.345967
     11          1           0        0.225994   -2.313618   -1.345967
     12          1           0       -1.869959    1.324213    0.000000
     13          1           0       -0.843460    2.460240   -0.881933
     14          1           0       -0.843460    2.460240    0.881933
 ---------------------------------------------------------------------

 SCF Done:  E(RB3LYP) =  -233.508252332     A.U. after    1 cycles

 The electronic state is 1-A'.
 Alpha  occ. eigenvalues --  -10.18270 -10.16892 -10.16887 -10.16857 -10.16571
 Alpha  occ. eigenvalues --  -10.16571  -0.86267  -0.74973  -0.70733  -0.64731
 Alpha  occ. eigenvalues --   -0.54360  -0.53636  -0.51377  -0.44516  -0.41742
 Alpha  occ. eigenvalues --   -0.39984  -0.38916  -0.37378  -0.34271  -0.34193
 Alpha  occ. eigenvalues --   -0.30488  -0.22492
 Alpha virt. eigenvalues --   -0.03101   0.02141   0.04081   0.04531   0.05401
 Alpha virt. eigenvalues --    0.05820   0.07008   0.07096   0.08938   0.10106
 Alpha virt. eigenvalues --    0.12246   0.15091   0.16377   0.17026   0.17617

 Mulliken charges:
               1
     1  C    0.123202
     2  C   -0.114180
     3  C   -0.114180
     4  C   -0.030079
     5  C   -0.030079
     6  H    0.037976
     7  C   -0.081135
     8  H    0.028725
     9  H    0.028725
    10  H    0.024662
    11  H    0.024662
    12  H    0.038852
    13  H    0.031425
    14  H    0.031425
 Sum of Mulliken charges =  -0.00000

 Dipole moment (field-independent basis, Debye):
    X=             -0.0091    Y=              0.4917    Z=             -0.0000  Tot=              0.4918
 Quadrupole moment (field-independent basis, Debye-Ang):
   XX=            -39.9862   YY=            -34.7297   ZZ=            -35.8253
   XY=              0.2869   XZ=             -0.0000   YZ=              0.0000

  Exact polarizability:  50.197  -4.012  82.870   0.000  -0.000  71.053
 Approx polarizability:  74.345  -0.569 125.560  -0.000   0.000 107.408

                      1                      2                      3
                     A'                     A"                     A"
 Frequencies --    169.6086               254.0049               292.6913
 Red. masses --      2.9187                 1.0360                 2.3157
 Frc consts  --      0.0495                 0.0394                 0.1169
 IR Inten    --      1.2485                 0.0017                 0.1933

                      4                      5                      6
                     A'                     A"                     A'
 Frequencies --    542.5062               564.6835               712.3572
 Red. masses --      2.6232                 2.5947                 1.7276
 Frc consts  --      0.4549                 0.4875                 0.5165
 IR Inten    --      2.3453                 0.3617                53.5671

                      7                      8                      9
                     A"                     A'                     A"
 Frequencies --    727.3358               785.0936               814.9475
 Red. masses --      1.2952                 1.6227                 5.6774
 Frc consts  --      0.4037                 0.5893                 2.2216
 IR Inten    --      0.9529                49.1655                 3.3618

                     10                     11                     12
                     A'                     A"                     A'
 Frequencies --    872.5282               946.4038               966.4128
 Red. masses --      3.0990                 1.6401                 1.2891
 Frc consts  --      1.3900                 0.8655                 0.7094
 IR Inten    --      5.3518                 3.7085                 0.0207

                     13                     14                     15
                     A"                     A'                     A'
 Frequencies --    967.1513               995.6293              1021.5420
 Red. masses --      1.3734                 2.0720                 1.5520
 Frc consts  --      0.7569                 1.2101                 0.9542
 IR Inten    --      0.0646                 3.1265                 5.8796

                     16                     17                     18
                     A'                     A"                     A"
 Frequencies --   1077.1435              1095.1532              1115.5983
 Red. masses --      1.9368                 1.2867                 1.1134
 Frc consts  --      1.3240                 0.9093                 0.8164
 IR Inten    --      5.8763                 8.5703                 1.6469

                     19                     20                     21
                     A'                     A"                     A'
 Frequencies --   1146.3119              1263.1761              1281.8138
 Red. masses --      1.4897                 1.8668                 1.4807
 Frc consts  --      1.1533                 1.7550                 1.4334
 IR Inten    --      0.2123                 0.2033                 1.1084

                     22                     23                     24
                     A"                     A'                     A'
 Frequencies --   1323.3912              1396.6145              1414.5511
 Red. masses --      1.6007                 1.4903                 1.5015
 Frc consts  --      1.6517                 1.7127                 1.7701
 IR Inten    --      0.0994                 2.4362                 4.9076

                     25                     26                     27
                     A"                     A'                     A'
 Frequencies --   1497.3008              1497.9670              1551.1888
 Red. masses --      1.0519                 1.0478                 6.1484
 Frc consts  --      1.3895                 1.3853                 8.7165
 IR Inten    --      4.0307                 5.2159                 2.2513

                     28                     29                     30
                     A"                     A'                     A'
 Frequencies --   1636.0594              2977.2293              3032.5601
 Red. masses --      5.3123                 1.0797                 1.0335
 Frc consts  --      8.3779                 5.6387                 5.6000
 IR Inten    --      0.0001                 8.1321                38.0715

                     31                     32                     33
                     A"                     A'                     A"
 Frequencies --   3095.2187              3103.1766              3190.8164
 Red. masses --      1.1025                 1.1029                 1.0857
 Frc consts  --      6.2230                 6.2575                 6.5129
 IR Inten    --     22.3326                23.0993                 1.9209

                     34                     35                     36
                     A'                     A"                     A'
 Frequencies --   3199.5949              3215.1771              3222.7373
 Red. masses --      1.0877                 1.0999                 1.1059
 Frc consts  --      6.5609                 6.6990                 6.7676
 IR Inten    --     12.1754                19.0459                 4.1894

 - Thermochemistry -
 -------------------
 Temperature   298.150 Kelvin.  Pressure   1.00000 Atm.
 Atom     1 has atomic number  6 and mass  12.00000

 Molecular mass:    80.06260 amu.
 Principal axes and moments of inertia in atomic units:
                           1         2         3
     Eigenvalues --   254.61946 508.58925 689.39774
           X           -0.27332   0.00000   0.96192
           Y            0.96192   0.00000   0.27332
           Z            0.00000   1.00000   0.00000
 This molecule is an asymmetric top.
 Rotational symmetry number  1.
 Rotational temperatures (Kelvin)      0.34017     0.17030     0.12564
 Rotational constants (GHZ):           7.08799     3.54852     2.61785
 Zero-point vibrational energy     316805.1 (Joules/Mol)
                                   75.71824 (Kcal/Mol)
 Warning -- explicit consideration of   5 degrees of freedom as
           vibrations may cause significant error
 Vibrational temperatures:    244.03   365.46   421.12   780.55   812.45
          (Kelvin)           1024.92  1046.47  1129.57  1172.53  1255.37
                             1361.66  1390.45  1391.52  1432.49  1469.77
                             1549.77  1575.68  1605.10  1649.29  1817.43
                             1844.24  1904.06  2009.42  2035.22  2154.28
                             2155.24  2231.81  2353.92  4283.57  4363.18
                             4453.33  4464.78  4590.87  4603.50  4625.92
                             4636.80

 Zero-point correction=                           0.120665 (Hartree/Particle)
 Thermal correction to Energy=                    0.126183
 Thermal correction to Enthalpy=                  0.127127
 Thermal correction to Gibbs Free Energy=         0.092074
 Sum of electronic and zero-point Energies=           -233.387588
 Sum of electronic and thermal Energies=              -233.382069
 Sum of electronic and thermal Enthalpies=            -233.381125
 Sum of electronic and thermal Free Energies=         -233.416178

                     E (Thermal)             CV                S
                      KCal/Mol        Cal/Mol-Kelvin    Cal/Mol-Kelvin
 Total                   79.181             21.003             73.776
 Electronic               0.000              0.000              0.000
 Translational            0.889              2.981             39.055
 Rotational               0.889              2.981             25.993
 Vibrational             77.404             15.041              8.727
 Vibration     1          0.625              1.880              2.440
 Vibration     2          0.665              1.756              1.703
 Vibration     3          0.688              1.687              1.458
 Vibration     4          0.898              1.156              0.560
 Vibration     5          0.921              1.108              0.515

 Optimization completed.
    -- Stationary point found.
 Normal termination of Gaussian 16 at Fri Jun 17 17:23:37 2022.
