 Gaussian 16, Revision B.01,

 ---------------------------------------
 # b3lyp/gen opt freq CPHF(Grid=OneStep)
 ---------------------------------------

 -------------------------------------------
 5-methyl-1,3-cyclopentadiene, B3LYP/pcseg-2
 -------------------------------------------
 Symbolic Z-matrix:
 Charge =  0 Multiplicity = 1

 SCF Done:  E(RB3LYP) =  -233.508252332     A.U. after   13 cycles
 Optimization completed.
    -- Stationary point found.
 Normal termination of Gaussian 16 at Fri Sep 29 04:49:42 2023.

 ------------------------------------------------------------------
 #N Geom=AllCheck Guess=TCheck SCRF=Check GenChk RB3LYP/ChkBas Freq
 ------------------------------------------------------------------

 Structure from the checkpoint file:  "CpMe.chk"
 -------------------------------------------
 5-methyl-1,3-cyclopentadiene, B3LYP/pcseg-2
 -------------------------------------------
 Charge =  0 Multiplicity = 1

 SCF Done:  E(RB3LYP) =  -233.508252332     A.U. after    1 cycles

  Exact polarizability:  50.198  -4.013  82.869   0.000  -0.000  71.053
 Approx polarizability:  74.345  -0.569 125.560   0.000  -0.000 107.408

                      1                      2                      3
                     A'                     A"                     A"
 Frequencies --    169.6091               254.0116               292.6966
 Red. masses --      2.9187                 1.0360                 2.3158
 Frc consts  --      0.0495                 0.0394                 0.1169
 IR Inten    --      1.2482                 0.0017                 0.1932

                      4                      5                      6
                     A'                     A"                     A'
 Frequencies --    542.5105               564.6865               712.3614
 Red. masses --      2.6233                 2.5947                 1.7277
 Frc consts  --      0.4549                 0.4875                 0.5166
 IR Inten    --      2.3444                 0.3617                53.5575

                      7                      8                      9
                     A"                     A'                     A"
 Frequencies --    727.3445               785.0970               814.9502
 Red. masses --      1.2952                 1.6226                 5.6774
 Frc consts  --      0.4037                 0.5893                 2.2216
 IR Inten    --      0.9537                49.1674                 3.3616

                     10                     11                     12
                     A'                     A"                     A'
 Frequencies --    872.5288               946.4020               966.4166
 Red. masses --      3.0990                 1.6401                 1.2891
 Frc consts  --      1.3900                 0.8655                 0.7094
 IR Inten    --      5.3514                 3.7078                 0.0207

                     13                     14                     15
                     A"                     A'                     A'
 Frequencies --    967.1549               995.6301              1021.5419
 Red. masses --      1.3734                 2.0720                 1.5520
 Frc consts  --      0.7569                 1.2101                 0.9543
 IR Inten    --      0.0647                 3.1266                 5.8792

                     16                     17                     18
                     A'                     A"                     A"
 Frequencies --   1077.1477              1095.1526              1115.6000
 Red. masses --      1.9368                 1.2867                 1.1134
 Frc consts  --      1.3240                 0.9093                 0.8164
 IR Inten    --      5.8764                 8.5708                 1.6475

                     19                     20                     21
                     A'                     A"                     A'
 Frequencies --   1146.3125              1263.1791              1281.8129
 Red. masses --      1.4897                 1.8668                 1.4807
 Frc consts  --      1.1533                 1.7550                 1.4334
 IR Inten    --      0.2124                 0.2035                 1.1087

                     22                     23                     24
                     A"                     A'                     A'
 Frequencies --   1323.3926              1396.6145              1414.5496
 Red. masses --      1.6007                 1.4903                 1.5015
 Frc consts  --      1.6517                 1.7126                 1.7701
 IR Inten    --      0.0994                 2.4362                 4.9068

                     25                     26                     27
                     A"                     A'                     A'
 Frequencies --   1497.2975              1497.9631              1551.1916
 Red. masses --      1.0519                 1.0478                 6.1485
 Frc consts  --      1.3895                 1.3853                 8.7167
 IR Inten    --      4.0308                 5.2159                 2.2500

                     28                     29                     30
                     A"                     A'                     A'
 Frequencies --   1636.0602              2977.2229              3032.5531
 Red. masses --      5.3124                 1.0797                 1.0335
 Frc consts  --      8.3779                 5.6387                 5.6000
 IR Inten    --      0.0001                 8.1316                38.0707

                     31                     32                     33
                     A"                     A'                     A"
 Frequencies --   3095.2047              3103.1741              3190.8096
 Red. masses --      1.1025                 1.1029                 1.0857
 Frc consts  --      6.2229                 6.2575                 6.5128
 IR Inten    --     22.3368                23.0994                 1.9222

                     34                     35                     36
                     A'                     A"                     A'
 Frequencies --   3199.5897              3215.1725              3222.7327
 Red. masses --      1.0877                 1.0999                 1.1059
 Frc consts  --      6.5609                 6.6989                 6.7675
 IR Inten    --     12.1755                19.0455                 4.1899

 - Thermochemistry -
 -------------------
 Temperature   298.150 Kelvin.  Pressure   1.00000 Atm.
 Atom     1 has atomic number  6 and mass  12.00000

 Molecular mass:    80.06260 amu.
 Principal axes and moments of inertia in atomic units:
                           1         2         3
     Eigenvalues --   254.61938 508.58913 689.39752
           X           -0.27332  -0.00000   0.96192
           Y            0.96192   0.00000   0.27332
           Z           -0.00000   1.00000   0.00000
 This molecule is an asymmetric top.
 Rotational symmetry number  1.
 Rotational temperatures (Kelvin)      0.34017     0.17030     0.12564
 Rotational constants (GHZ):           7.08800     3.54852     2.61785
 Zero-point vibrational energy     316805.1 (Joules/Mol)
                                   75.71823 (Kcal/Mol)
 Warning -- explicit consideration of   5 degrees of freedom as
           vibrations may cause significant error
 Vibrational temperatures:    244.03   365.47   421.13   780.55   812.46
          (Kelvin)           1024.93  1046.49  1129.58  1172.53  1255.37
                             1361.66  1390.46  1391.52  1432.49  1469.77
                             1549.78  1575.68  1605.10  1649.29  1817.43
                             1844.24  1904.07  2009.42  2035.22  2154.28
                             2155.23  2231.82  2353.93  4283.56  4363.17
                             4453.31  4464.78  4590.86  4603.50  4625.92
                             4636.79

 Zero-point correction=                           0.120665 (Hartree/Particle)
 Thermal correction to Energy=                    0.126183
 Thermal correction to Enthalpy=                  0.127127
 Thermal correction to Gibbs Free Energy=         0.092074
 Sum of electronic and zero-point Energies=           -233.387588
 Sum of electronic and thermal Energies=              -233.382069
 Sum of electronic and thermal Enthalpies=            -233.381125
 Sum of electronic and thermal Free Energies=         -233.416178

                     E (Thermal)             CV                S
                      KCal/Mol        Cal/Mol-Kelvin    Cal/Mol-Kelvin
 Total                   79.181             21.002             73.775
 Electronic               0.000              0.000              0.000
 Translational            0.889              2.981             39.055
 Rotational               0.889              2.981             25.993
 Vibrational             77.404             15.041              8.727
 Vibration     1          0.625              1.880              2.440
 Vibration     2          0.665              1.756              1.703
 Vibration     3          0.688              1.687              1.458
 Vibration     4          0.898              1.156              0.560
 Vibration     5          0.921              1.108              0.515

 Optimization completed.
    -- Stationary point found.
 Normal termination of Gaussian 16 at Fri Sep 29 05:03:35 2023.
 Gaussian 16:  ES64L-G16RevB.01 20-Dec-2017

 ---------------------------------
 # rohf/gen geom=check guess=check
 ---------------------------------

 ----------------------------------------------
 5-methyl-1,3-cyclopentadiene, ROHF/cc-pVTZ-F12
 ----------------------------------------------
 Structure from the checkpoint file:  "CpMe.chk"
 Charge =  0 Multiplicity = 1

                         Standard orientation:
 ---------------------------------------------------------------------
 Center     Atomic      Atomic             Coordinates (Angstroms)
 Number     Number       Type             X           Y           Z
 ---------------------------------------------------------------------
      1          6           0        0.237557    0.788358   -0.000000
      2          6           0        0.226718   -0.155570    1.173773
      3          6           0        0.226718   -0.155570   -1.173773
      4          6           0        0.226718   -1.423964    0.733195
      5          6           0        0.226718   -1.423964   -0.733195
      6          1           0        1.191698    1.334603   -0.000000
      7          6           0       -0.899954    1.821367   -0.000000
      8          1           0        0.223167    0.171999    2.202629
      9          1           0        0.223167    0.171999   -2.202629
     10          1           0        0.225994   -2.313618    1.345967
     11          1           0        0.225994   -2.313618   -1.345967
     12          1           0       -1.869959    1.324213   -0.000000
     13          1           0       -0.843460    2.460240   -0.881933
     14          1           0       -0.843460    2.460240    0.881933
 ---------------------------------------------------------------------

 SCF Done:  E(ROHF) =  -231.919777714     A.U. after   11 cycles

 The electronic state is 1-A'.
 Alpha  occ. eigenvalues --  -11.23270 -11.22488 -11.22412 -11.22098 -11.22097
 Alpha  occ. eigenvalues --  -11.21907  -1.15477  -1.00993  -0.96366  -0.87829
 Alpha  occ. eigenvalues --   -0.74079  -0.73087  -0.69084  -0.60256  -0.57266
 Alpha  occ. eigenvalues --   -0.55650  -0.53099  -0.52145  -0.48037  -0.47755
 Alpha  occ. eigenvalues --   -0.41164  -0.30650
 Alpha virt. eigenvalues --    0.04683   0.05083   0.05422   0.06131   0.06985
 Alpha virt. eigenvalues --    0.07071   0.08663   0.09196   0.09837   0.10501
 Alpha virt. eigenvalues --    0.11310   0.11842   0.12393   0.13293   0.13539

 Mulliken charges and spin densities:
               1          2
     1  C    0.183741   0.000000
     2  C   -0.224244   0.000000
     3  C   -0.224244   0.000000
     4  C   -0.196989   0.000000
     5  C   -0.196989   0.000000
     6  H    0.075140   0.000000
     7  C   -0.305704   0.000000
     8  H    0.153623   0.000000
     9  H    0.153623   0.000000
    10  H    0.152335   0.000000
    11  H    0.152335   0.000000
    12  H    0.101952   0.000000
    13  H    0.087710   0.000000
    14  H    0.087710   0.000000
 Sum of Mulliken charges =  -0.00000   0.00000

 Dipole moment (field-independent basis, Debye):
    X=             -0.0100    Y=              0.4119    Z=              0.0000  Tot=              0.4121
 Quadrupole moment (field-independent basis, Debye-Ang):
   XX=            -40.5101   YY=            -34.4282   ZZ=            -35.7765
   XY=              0.2798   XZ=             -0.0000   YZ=             -0.0000

 Normal termination of Gaussian 16 at Fri Sep 29 05:07:44 2023.
