 Gaussian 16, Revision B.01,
 Gaussian 16:  ES64L-G16RevB.01 20-Dec-2017

 --------------------
 # b3lyp/gen opt freq
 --------------------

 -----------------------------------
 carbonyl monosulfide, B3LYP/pcseg-2
 -----------------------------------
 Symbolic Z-matrix:
 Charge =  0 Multiplicity = 1

 SCF Done:  E(RB3LYP) =  -436.260496924     A.U. after   11 cycles
 SCF Done:  E(RB3LYP) =  -436.264484003     A.U. after   10 cycles
 SCF Done:  E(RB3LYP) =  -436.264522958     A.U. after    8 cycles
 Optimization completed.
    -- Stationary point found.
 Normal termination of Gaussian 16 at Tue Jun 14 21:02:15 2022.

 ------------------------------------------------------------------
 #N Geom=AllCheck Guess=TCheck SCRF=Check GenChk RB3LYP/ChkBas Freq
 ------------------------------------------------------------------

 Structure from the checkpoint file:  "/wrk/irikura/Gau-13006.chk"
 -----------------------------------
 carbonyl monosulfide, B3LYP/pcseg-2
 -----------------------------------
 Charge =  0 Multiplicity = 1

                         Standard orientation:
 ---------------------------------------------------------------------
 Center     Atomic      Atomic             Coordinates (Angstroms)
 Number     Number       Type             X           Y           Z
 ---------------------------------------------------------------------
      1          6           0        0.000000    0.000000   -1.114800
      2         16           0        0.000000    0.000000    0.418050
 ---------------------------------------------------------------------

 SCF Done:  E(RB3LYP) =  -436.264522958     A.U. after    1 cycles

 The electronic state is 1-SG.
 Alpha  occ. eigenvalues --  -88.89183 -10.27482  -7.98904  -5.94794  -5.94794
 Alpha  occ. eigenvalues --   -5.94682  -0.84269  -0.52827  -0.36210  -0.36210
 Alpha  occ. eigenvalues --   -0.31839
 Alpha virt. eigenvalues --   -0.09425  -0.09425   0.07263   0.10862   0.17431
 Alpha virt. eigenvalues --    0.17431   0.18651   0.27257   0.27257   0.31292
 Alpha virt. eigenvalues --    0.47083   0.47083   0.52089   0.52089   0.66303

 Mulliken charges:
               1
     1  C   -0.131032
     2  S    0.131032
 Sum of Mulliken charges =  -0.00000

 Dipole moment (field-independent basis, Debye):
    X=              0.0000    Y=              0.0000    Z=              1.8843  Tot=              1.8843
 Quadrupole moment (field-independent basis, Debye-Ang):
   XX=            -18.2708   YY=            -18.2708   ZZ=            -20.9916
   XY=              0.0000   XZ=              0.0000   YZ=              0.0000

  Exact polarizability:  17.053   0.000  17.053  -0.000   0.000  37.045
 Approx polarizability:  25.439  -0.000  25.439  -0.000  -0.000  81.422

                      1
                     SG
 Frequencies --   1308.1470
 Red. masses --     14.4661
 Frc consts  --     14.5853
 IR Inten    --     88.6090

 - Thermochemistry -
 -------------------
 Temperature   298.150 Kelvin.  Pressure   1.00000 Atm.
 Atom     1 has atomic number  6 and mass  12.00000

 Molecular mass:    43.97207 amu.
 Principal axes and moments of inertia in atomic units:
                           1         2         3
     Eigenvalues --     0.00000  73.21025  73.21025
           X            0.00000  -0.00000   1.00000
           Y            0.00000   1.00000   0.00000
           Z            1.00000   0.00000   0.00000
 This molecule is a prolate symmetric top.
 Rotational symmetry number  1.
 Rotational temperature (Kelvin)      1.18308
 Rotational constant (GHZ):          24.651482
 Zero-point vibrational energy       7824.5 (Joules/Mol)
                                    1.87009 (Kcal/Mol)
 Vibrational temperatures:   1882.13
          (Kelvin)

 Zero-point correction=                           0.002980 (Hartree/Particle)
 Thermal correction to Energy=                    0.005351
 Thermal correction to Enthalpy=                  0.006296
 Thermal correction to Gibbs Free Energy=        -0.017590
 Sum of electronic and zero-point Energies=           -436.261543
 Sum of electronic and thermal Energies=              -436.259171
 Sum of electronic and thermal Enthalpies=            -436.258227
 Sum of electronic and thermal Free Energies=         -436.282113

                     E (Thermal)             CV                S
                      KCal/Mol        Cal/Mol-Kelvin    Cal/Mol-Kelvin
 Total                    3.358              5.112             50.271
 Electronic               0.000              0.000              0.000
 Translational            0.889              2.981             37.269
 Rotational               0.592              1.987             12.975
 Vibrational              1.877              0.144              0.026

 Optimization completed.
    -- Stationary point found.
 Normal termination of Gaussian 16 at Tue Jun 14 21:02:20 2022.
