 Gaussian 16, Revision B.01,

 ---------------------------------------
 # b3lyp/gen opt freq CPHF(Grid=OneStep)
 ---------------------------------------

 ---------------------------
 cyclopropane, B3LYP/pcseg-2
 ---------------------------
 Symbolic Z-matrix:
 Charge =  0 Multiplicity = 1

 SCF Done:  E(RB3LYP) =  -117.946183263     A.U. after    9 cycles
 Optimization completed.
    -- Stationary point found.
 Normal termination of Gaussian 16 at Sat Sep 30 10:12:37 2023.

 ------------------------------------------------------------------
 #N Geom=AllCheck Guess=TCheck SCRF=Check GenChk RB3LYP/ChkBas Freq
 ------------------------------------------------------------------

 Structure from the checkpoint file:  "cyc3.chk"
 ---------------------------
 cyclopropane, B3LYP/pcseg-2
 ---------------------------
 Charge =  0 Multiplicity = 1

 SCF Done:  E(RB3LYP) =  -117.946183263     A.U. after    1 cycles

  Exact polarizability:  36.830   0.000  36.830   0.000   0.000  32.847
 Approx polarizability:  49.500   0.000  49.500   0.000   0.000  45.069

                      1                      2                      3
                     E"                     E"                     A2"
 Frequencies --    744.4287               744.4287               861.7290
 Red. masses --      1.0215                 1.0215                 1.0448
 Frc consts  --      0.3335                 0.3335                 0.4571
 IR Inten    --      0.0000                 0.0000                 0.6485

                      4                      5                      6
                     E'                     E'                     E'
 Frequencies --    878.9921               878.9921              1055.4952
 Red. masses --      3.8613                 3.8613                 1.2524
 Frc consts  --      1.7578                 1.7578                 0.8220
 IR Inten    --     19.7303                19.7295                10.6527

                      7                      8                      9
                     E'                     A2'                    A1"
 Frequencies --   1055.4952              1097.6529              1153.8505
 Red. masses --      1.2524                 1.4273                 1.0078
 Frc consts  --      0.8220                 1.0132                 0.7906
 IR Inten    --     10.6530                 0.0000                 0.0000

                     10                     11                     12
                     A1'                    E"                     E"
 Frequencies --   1210.0572              1213.4054              1213.4054
 Red. masses --      2.7759                 1.4498                 1.4498
 Frc consts  --      2.3948                 1.2577                 1.2577
 IR Inten    --      0.0000                 0.0000                 0.0000

                     13                     14                     15
                     E'                     E'                     A1'
 Frequencies --   1477.1581              1477.1581              1519.4077
 Red. masses --      1.0872                 1.0872                 1.3057
 Frc consts  --      1.3977                 1.3977                 1.7759
 IR Inten    --      1.0132                 1.0132                 0.0000

                     16                     17                     18
                     E'                     E'                     A1'
 Frequencies --   3129.5126              3129.5126              3136.6253
 Red. masses --      1.0504                 1.0504                 1.0619
 Frc consts  --      6.0609                 6.0609                 6.1557
 IR Inten    --     25.6330                25.6331                 0.0000

                     19                     20                     21
                     E"                     E"                     A2"
 Frequencies --   3202.4340              3202.4340              3223.8181
 Red. masses --      1.1193                 1.1193                 1.1153
 Frc consts  --      6.7633                 6.7633                 6.8296
 IR Inten    --      0.0000                 0.0000                29.9303

 - Thermochemistry -
 -------------------
 Temperature   298.150 Kelvin.  Pressure   1.00000 Atm.
 Atom     1 has atomic number  6 and mass  12.00000

 Molecular mass:    42.04695 amu.
 Principal axes and moments of inertia in atomic units:
                           1         2         3
     Eigenvalues --    89.14977  89.14977 142.77967
           X           -0.53688   0.84366   0.00000
           Y            0.84366   0.53688   0.00000
           Z           -0.00000  -0.00000   1.00000
 This molecule is an oblate symmetric top.
 Rotational symmetry number  6.
 Rotational temperatures (Kelvin)      0.97156     0.97156     0.60663
 Rotational constants (GHZ):          20.24392    20.24392    12.64004
 Zero-point vibrational energy     212971.1 (Joules/Mol)
                                   50.90132 (Kcal/Mol)
 Vibrational temperatures:   1071.07  1071.07  1239.84  1264.67  1264.67
          (Kelvin)           1518.62  1518.62  1579.28  1660.13  1741.00
                             1745.82  1745.82  2125.30  2125.30  2186.09
                             4502.67  4502.67  4512.90  4607.59  4607.59
                             4638.36

 Zero-point correction=                           0.081116 (Hartree/Particle)
 Thermal correction to Energy=                    0.084488
 Thermal correction to Enthalpy=                  0.085432
 Thermal correction to Gibbs Free Energy=         0.058526
 Sum of electronic and zero-point Energies=           -117.865067
 Sum of electronic and thermal Energies=              -117.861695
 Sum of electronic and thermal Enthalpies=            -117.860751
 Sum of electronic and thermal Free Energies=         -117.887657

                     E (Thermal)             CV                S
                      KCal/Mol        Cal/Mol-Kelvin    Cal/Mol-Kelvin
 Total                   53.017             11.051             56.629
 Electronic               0.000              0.000              0.000
 Translational            0.889              2.981             37.135
 Rotational               0.889              2.981             18.095
 Vibrational             51.240              5.090              1.398

 Optimization completed.
    -- Stationary point found.
 Normal termination of Gaussian 16 at Sat Sep 30 10:14:09 2023.
 Gaussian 16:  ES64L-G16RevB.01 20-Dec-2017

 ---------------------------------
 # rohf/gen geom=check guess=check
 ---------------------------------

 ------------------------------
 cyclopropane, ROHF/cc-pVTZ-F12
 ------------------------------
 Structure from the checkpoint file:  "cyc3.chk"
 Charge =  0 Multiplicity = 1

                         Standard orientation:
 ---------------------------------------------------------------------
 Center     Atomic      Atomic             Coordinates (Angstroms)
 Number     Number       Type             X           Y           Z
 ---------------------------------------------------------------------
      1          6           0       -0.000000    0.868507    0.000000
      2          6           0        0.752149   -0.434254    0.000000
      3          6           0       -0.752149   -0.434254    0.000000
      4          1           0       -0.000000    1.456469    0.906888
      5          1           0        1.261339   -0.728235    0.906888
      6          1           0       -1.261339   -0.728235    0.906888
      7          1           0        0.000000    1.456469   -0.906888
      8          1           0        1.261339   -0.728235   -0.906888
      9          1           0       -1.261339   -0.728235   -0.906888
 ---------------------------------------------------------------------

 SCF Done:  E(ROHF) =  -117.108155794     A.U. after    9 cycles

 The electronic state is 1-A1'.
 Alpha  occ. eigenvalues --  -11.22173 -11.22071 -11.22071  -1.13067  -0.81822
 Alpha  occ. eigenvalues --   -0.81822  -0.66699  -0.62811  -0.51182  -0.51182
 Alpha  occ. eigenvalues --   -0.41970  -0.41970
 Alpha virt. eigenvalues --    0.05211   0.05211   0.06260   0.06792   0.09497
 Alpha virt. eigenvalues --    0.09497   0.10300   0.10300   0.11970   0.13008
 Alpha virt. eigenvalues --    0.17645   0.17645   0.21996   0.24653   0.26627

 Mulliken charges and spin densities:
               1          2
     1  C   -0.182845  -0.000000
     2  C   -0.182845  -0.000000
     3  C   -0.182845  -0.000000
     4  H    0.091422  -0.000000
     5  H    0.091422  -0.000000
     6  H    0.091422  -0.000000
     7  H    0.091422  -0.000000
     8  H    0.091422  -0.000000
     9  H    0.091422  -0.000000
 Sum of Mulliken charges =  -0.00000  -0.00000

 Dipole moment (field-independent basis, Debye):
    X=              0.0000    Y=              0.0000    Z=              0.0000  Tot=              0.0000
 Quadrupole moment (field-independent basis, Debye-Ang):
   XX=            -20.8238   YY=            -20.8238   ZZ=            -18.5535
   XY=              0.0000   XZ=             -0.0000   YZ=             -0.0000

 Normal termination of Gaussian 16 at Sat Sep 30 10:14:19 2023.
