 Gaussian 16, Revision B.01,
 Gaussian 16:  ES64L-G16RevB.01 20-Dec-2017

 --------------------
 # b3lyp/gen opt freq
 --------------------

 ---------------------------------------
 trimethylenecyclopropane, B3LYP/pcseg-2
 ---------------------------------------
 Symbolic Z-matrix:
 Charge =  0 Multiplicity = 1

 SCF Done:  E(RB3LYP) =  -232.206603881     A.U. after   11 cycles
 SCF Done:  E(RB3LYP) =  -232.206615941     A.U. after    7 cycles
 Optimization completed.
    -- Stationary point found.
 Normal termination of Gaussian 16 at Sat Jun 18 10:47:06 2022.

 ------------------------------------------------------------------
 #N Geom=AllCheck Guess=TCheck SCRF=Check GenChk RB3LYP/ChkBas Freq
 ------------------------------------------------------------------

 Structure from the checkpoint file:  "/wrk/irikura/Gau-22230.chk"
 ---------------------------------------
 trimethylenecyclopropane, B3LYP/pcseg-2
 ---------------------------------------
 Charge =  0 Multiplicity = 1

                         Standard orientation:
 ---------------------------------------------------------------------
 Center     Atomic      Atomic             Coordinates (Angstroms)
 Number     Number       Type             X           Y           Z
 ---------------------------------------------------------------------
      1          6           0       -0.000000    0.830144    0.000000
      2          6           0       -0.718926   -0.415072    0.000000
      3          6           0        0.718926   -0.415072    0.000000
      4          6           0       -0.000000    2.159166    0.000000
      5          6           0       -1.869893   -1.079583    0.000000
      6          6           0        1.869893   -1.079583    0.000000
      7          1           0        0.924775    2.719758    0.000000
      8          1           0       -0.924775    2.719758   -0.000000
      9          1           0       -2.817767   -0.559000    0.000000
     10          1           0       -1.892992   -2.160757    0.000000
     11          1           0        1.892992   -2.160757    0.000000
     12          1           0        2.817767   -0.559000   -0.000000
 ---------------------------------------------------------------------

 SCF Done:  E(RB3LYP) =  -232.206615941     A.U. after    1 cycles

 Unable to determine electronic state:  an orbital has unidentified symmetry.
 Alpha  occ. eigenvalues --  -10.20053 -10.19990 -10.19990 -10.18376 -10.18376
 Alpha  occ. eigenvalues --  -10.18376  -0.89856  -0.74591  -0.74591  -0.70454
 Alpha  occ. eigenvalues --   -0.52111  -0.52111  -0.48303  -0.45613  -0.45613
 Alpha  occ. eigenvalues --   -0.43307  -0.39696  -0.31781  -0.31781  -0.25472
 Alpha  occ. eigenvalues --   -0.25472
 Alpha virt. eigenvalues --   -0.08913   0.01586   0.04165   0.04165   0.06918
 Alpha virt. eigenvalues --    0.06918   0.07170   0.07575   0.07575   0.11037
 Alpha virt. eigenvalues --    0.14408   0.14408   0.15511   0.16929   0.18076

 Mulliken charges:
               1
     1  C    0.003889
     2  C    0.003889
     3  C    0.003889
     4  C   -0.113840
     5  C   -0.113840
     6  C   -0.113840
     7  H    0.054976
     8  H    0.054976
     9  H    0.054976
    10  H    0.054976
    11  H    0.054976
    12  H    0.054976
 Sum of Mulliken charges =   0.00000

 Dipole moment (field-independent basis, Debye):
    X=              0.0000    Y=              0.0000    Z=             -0.0000  Tot=              0.0000
 Quadrupole moment (field-independent basis, Debye-Ang):
   XX=            -32.2277   YY=            -32.2277   ZZ=            -40.1143
   XY=             -0.0000   XZ=             -0.0000   YZ=             -0.0000

  Exact polarizability: 104.542   0.000 104.542   0.000   0.000  41.126
 Approx polarizability: 173.856   0.000 173.856   0.000   0.000  59.948

                      1                      2                      3
                     A2"                    ?A                     ?A
 Frequencies --    215.0361               225.4202               225.4202
 Red. masses --      3.9482                 2.5668                 2.5668
 Frc consts  --      0.1076                 0.0768                 0.0768
 IR Inten    --      8.5334                 0.0067                 0.0067

                      4                      5                      6
                     E"                     E"                     ?B
 Frequencies --    340.9701               340.9701               514.5425
 Red. masses --      1.7718                 1.7718                 2.5193
 Frc consts  --      0.1214                 0.1214                 0.3930
 IR Inten    --      0.0000                 0.0000                 0.0000

                      7                      8                      9
                     A1"                    E"                     E"
 Frequencies --    744.2799               767.9537               767.9537
 Red. masses --      1.0078                 1.7118                 1.7118
 Frc consts  --      0.3289                 0.5948                 0.5948
 IR Inten    --      0.0000                 0.0000                 0.0000

                     10                     11                     12
                     ?B                     ?A                     ?A
 Frequencies --    797.6923               798.7966               798.7966
 Red. masses --      4.3587                 2.6345                 2.6345
 Frc consts  --      1.6341                 0.9904                 0.9904
 IR Inten    --      0.0000                 8.0667                 8.0665

                     13                     14                     15
                     E"                     E"                     A2"
 Frequencies --    909.9091               909.9091               914.5610
 Red. masses --      1.3657                 1.3657                 1.3300
 Frc consts  --      0.6662                 0.6662                 0.6554
 IR Inten    --      0.0000                 0.0000               136.6142

                     16                     17                     18
                     ?B                     ?A                     ?A
 Frequencies --   1111.1009              1132.4086              1132.4086
 Red. masses --      1.6993                 1.8697                 1.8697
 Frc consts  --      1.2361                 1.4126                 1.4126
 IR Inten    --      0.0000                 4.0092                 4.0087

                     19                     20                     21
                     ?A                     ?A                     ?B
 Frequencies --   1446.4220              1446.4220              1480.7359
 Red. masses --      1.1840                 1.1840                 1.1407
 Frc consts  --      1.4595                 1.4595                 1.4735
 IR Inten    --     10.2190                10.2185                 0.0000

                     22                     23                     24
                     ?A                     ?A                     ?B
 Frequencies --   1675.3703              1675.3703              1867.7263
 Red. masses --      6.3111                 6.3111                10.2874
 Frc consts  --     10.4370                10.4370                21.1437
 IR Inten    --      0.7226                 0.7223                 0.0000

                     25                     26                     27
                     ?A                     ?A                     ?B
 Frequencies --   3142.0950              3142.0950              3142.2013
 Red. masses --      1.0568                 1.0568                 1.0551
 Frc consts  --      6.1471                 6.1471                 6.1375
 IR Inten    --     10.6912                10.6913                 0.0000

                     28                     29                     30
                     ?B                     ?A                     ?A
 Frequencies --   3226.4560              3226.9070              3226.9070
 Red. masses --      1.1168                 1.1171                 1.1171
 Frc consts  --      6.8498                 6.8534                 6.8534
 IR Inten    --      0.0000                 6.6289                 6.6290

 - Thermochemistry -
 -------------------
 Temperature   298.150 Kelvin.  Pressure   1.00000 Atm.
 Atom     1 has atomic number  6 and mass  12.00000

 Molecular mass:    78.04695 amu.
 Principal axes and moments of inertia in atomic units:
                           1         2         3
     Eigenvalues --   433.06682 433.06682 866.13365
           X            0.47139   0.88192   0.00000
           Y            0.88192  -0.47139   0.00000
           Z           -0.00000  -0.00000   1.00000
 This molecule is an oblate symmetric top.
 Rotational symmetry number  6.
 Rotational temperatures (Kelvin)      0.20000     0.20000     0.10000
 Rotational constants (GHZ):           4.16735     4.16735     2.08368
 Zero-point vibrational energy     247309.0 (Joules/Mol)
                                   59.10827 (Kcal/Mol)
 Warning -- explicit consideration of   6 degrees of freedom as
           vibrations may cause significant error
 Vibrational temperatures:    309.39   324.33   324.33   490.58   490.58
          (Kelvin)            740.31  1070.85  1104.91  1104.91  1147.70
                             1149.29  1149.29  1309.16  1309.16  1315.85
                             1598.63  1629.28  1629.28  2081.08  2081.08
                             2130.45  2410.48  2410.48  2687.24  4520.77
                             4520.77  4520.93  4642.15  4642.80  4642.80

 Zero-point correction=                           0.094195 (Hartree/Particle)
 Thermal correction to Energy=                    0.100321
 Thermal correction to Enthalpy=                  0.101265
 Thermal correction to Gibbs Free Energy=         0.066650
 Sum of electronic and zero-point Energies=           -232.112421
 Sum of electronic and thermal Energies=              -232.106295
 Sum of electronic and thermal Enthalpies=            -232.105351
 Sum of electronic and thermal Free Energies=         -232.139966

                     E (Thermal)             CV                S
                      KCal/Mol        Cal/Mol-Kelvin    Cal/Mol-Kelvin
 Total                   62.952             22.498             72.854
 Electronic               0.000              0.000              0.000
 Translational            0.889              2.981             38.979
 Rotational               0.889              2.981             23.027
 Vibrational             61.175             16.537             10.847
 Vibration     1          0.645              1.818              2.000
 Vibration     2          0.650              1.802              1.915
 Vibration     3          0.650              1.802              1.915
 Vibration     4          0.720              1.594              1.208
 Vibration     5          0.720              1.594              1.208
 Vibration     6          0.870              1.218              0.623

 Optimization completed.
    -- Stationary point found.
 Normal termination of Gaussian 16 at Sat Jun 18 10:48:05 2022.
