 Gaussian 16, Revision B.01,
 Gaussian 16:  ES64L-G16RevB.01 20-Dec-2017

 --------------------
 # b3lyp/gen opt freq
 --------------------

 ---------------------------
 cyclopropene, B3LYP/pcseg-2
 ---------------------------
 Symbolic Z-matrix:
 Charge =  0 Multiplicity = 1

 SCF Done:  E(RB3LYP) =  -116.669191100     A.U. after   11 cycles
 SCF Done:  E(RB3LYP) =  -116.669245651     A.U. after    7 cycles
 Optimization completed.
    -- Stationary point found.
 Normal termination of Gaussian 16 at Wed Jun 15 14:05:10 2022.

 ------------------------------------------------------------------
 #N Geom=AllCheck Guess=TCheck SCRF=Check GenChk RB3LYP/ChkBas Freq
 ------------------------------------------------------------------

 Structure from the checkpoint file:  "/wrk/irikura/Gau-6471.chk"
 ---------------------------
 cyclopropene, B3LYP/pcseg-2
 ---------------------------
 Charge =  0 Multiplicity = 1

                         Standard orientation:
 ---------------------------------------------------------------------
 Center     Atomic      Atomic             Coordinates (Angstroms)
 Number     Number       Type             X           Y           Z
 ---------------------------------------------------------------------
      1          6           0        0.000000    0.000000    0.860684
      2          6           0        0.000000    0.643273   -0.500092
      3          6           0       -0.000000   -0.643273   -0.500092
      4          1           0        0.000000    1.571931   -1.039652
      5          1           0       -0.000000   -1.571931   -1.039652
      6          1           0        0.909656   -0.000000    1.458155
      7          1           0       -0.909656    0.000000    1.458155
 ---------------------------------------------------------------------

 SCF Done:  E(RB3LYP) =  -116.669245651     A.U. after    1 cycles

 The electronic state is 1-A1.
 Alpha  occ. eigenvalues --  -10.18858 -10.18726 -10.18372  -0.87498  -0.60381
 Alpha  occ. eigenvalues --   -0.56833  -0.50997  -0.44009  -0.35579  -0.30090
 Alpha  occ. eigenvalues --   -0.25979
 Alpha virt. eigenvalues --   -0.00782   0.03516   0.04385   0.04412   0.07416
 Alpha virt. eigenvalues --    0.11819   0.12349   0.14473   0.16261   0.18716
 Alpha virt. eigenvalues --    0.21153   0.25466   0.27539   0.27570   0.29938

 Mulliken charges:
               1
     1  C   -0.084495
     2  C   -0.054492
     3  C   -0.054492
     4  H    0.057863
     5  H    0.057863
     6  H    0.038877
     7  H    0.038877
 Sum of Mulliken charges =   0.00000

 Dipole moment (field-independent basis, Debye):
    X=              0.0000    Y=             -0.0000    Z=             -0.4714  Tot=              0.4714
 Quadrupole moment (field-independent basis, Debye-Ang):
   XX=            -19.6091   YY=            -17.0425   ZZ=            -18.7933
   XY=              0.0000   XZ=             -0.0000   YZ=              0.0000

  Exact polarizability:  25.041  -0.000  35.962   0.000   0.000  37.697
 Approx polarizability:  34.448   0.000  59.230  -0.000   0.000  50.006

                      1                      2                      3
                     B1                     B2                     A2
 Frequencies --    604.1441               784.5084               873.2036
 Red. masses --      1.1238                 2.6123                 1.4218
 Frc consts  --      0.2417                 0.9473                 0.6388
 IR Inten    --     88.0581                15.6057                 0.0000

                      4                      5                      6
                     A1                     A2                     B2
 Frequencies --    924.2655              1017.0860              1038.1094
 Red. masses --      1.1466                 1.0909                 1.5644
 Frc consts  --      0.5771                 0.6649                 0.9933
 IR Inten    --      4.5529                 0.0000                39.4886

                      7                      8                      9
                     B2                     B1                     A1
 Frequencies --   1077.3048              1113.8699              1149.0488
 Red. masses --      1.3583                 1.2863                 4.3503
 Frc consts  --      0.9288                 0.9403                 3.3842
 IR Inten    --     22.8767                 1.6383                 0.2672

                     10                     11                     12
                     A1                     A1                     A1
 Frequencies --   1525.9518              1731.4524              3038.5277
 Red. masses --      1.1146                 4.6331                 1.0468
 Frc consts  --      1.5292                 8.1836                 5.6943
 IR Inten    --      2.0932                17.7277                74.2419

                     13                     14                     15
                     B1                     B2                     A1
 Frequencies --   3098.4093              3253.8137              3298.4730
 Red. masses --      1.1171                 1.0842                 1.1445
 Frc consts  --      6.3188                 6.7628                 7.3364
 IR Inten    --     44.3376                 0.1808                 0.0467

 - Thermochemistry -
 -------------------
 Temperature   298.150 Kelvin.  Pressure   1.00000 Atm.
 Atom     1 has atomic number  6 and mass  12.00000

 Molecular mass:    40.03130 amu.
 Principal axes and moments of inertia in atomic units:
                           1         2         3
     Eigenvalues --    59.20716  82.15801 129.45282
           X            0.00000   0.00000   1.00000
           Y            0.00000   1.00000  -0.00000
           Z            1.00000  -0.00000  -0.00000
 This molecule is an asymmetric top.
 Rotational symmetry number  2.
 Rotational temperatures (Kelvin)      1.46290     1.05424     0.66908
 Rotational constants (GHZ):          30.48181    21.96671    13.94130
 Zero-point vibrational energy     146711.0 (Joules/Mol)
                                   35.06478 (Kcal/Mol)
 Warning -- explicit consideration of   1 degrees of freedom as
           vibrations may cause significant error
 Vibrational temperatures:    869.23  1128.73  1256.35  1329.81  1463.36
          (Kelvin)           1493.61  1550.00  1602.61  1653.22  2195.50
                             2491.17  4371.76  4457.92  4681.51  4745.77

 Zero-point correction=                           0.055879 (Hartree/Particle)
 Thermal correction to Energy=                    0.059205
 Thermal correction to Enthalpy=                  0.060150
 Thermal correction to Gibbs Free Energy=         0.032598
 Sum of electronic and zero-point Energies=           -116.613366
 Sum of electronic and thermal Energies=              -116.610040
 Sum of electronic and thermal Enthalpies=            -116.609096
 Sum of electronic and thermal Free Energies=         -116.636648

                     E (Thermal)             CV                S
                      KCal/Mol        Cal/Mol-Kelvin    Cal/Mol-Kelvin
 Total                   37.152             10.273             57.988
 Electronic               0.000              0.000              0.000
 Translational            0.889              2.981             36.989
 Rotational               0.889              2.981             19.693
 Vibrational             35.375              4.312              1.306
 Vibration     1          0.963              1.023              0.443

                           ! Non-Optimized Parameters !
 Normal termination of Gaussian 16 at Wed Jun 15 14:05:30 2022.
