 Gaussian 16, Revision B.01,

 ---------------------------------------
 # b3lyp/gen opt freq CPHF(Grid=OneStep)
 ---------------------------------------

 --------------------------
 cyclopropyl, B3LYP/pcseg-2
 --------------------------
 Symbolic Z-matrix:
 Charge =  0 Multiplicity = 2

 SCF Done:  E(UB3LYP) =  -117.263365201     A.U. after   13 cycles
 Optimization completed.
    -- Stationary point found.
 Normal termination of Gaussian 16 at Sat Sep 30 23:41:47 2023.

 ------------------------------------------------------------------
 #N Geom=AllCheck Guess=TCheck SCRF=Check GenChk UB3LYP/ChkBas Freq
 ------------------------------------------------------------------

 Structure from the checkpoint file:  "cyc3yl.chk"
 --------------------------
 cyclopropyl, B3LYP/pcseg-2
 --------------------------
 Charge =  0 Multiplicity = 2

 SCF Done:  E(UB3LYP) =  -117.263365201     A.U. after    1 cycles

  Exact polarizability:  30.382  -1.171  36.276  -0.000  -0.000  37.245
 Approx polarizability:  41.060  -1.350  49.234   0.000   0.000  50.094

                      1                      2                      3
                     A'                     A'                     A"
 Frequencies --    555.8504               761.0170               782.9739
 Red. masses --      1.0638                 1.2726                 1.0768
 Frc consts  --      0.1937                 0.4342                 0.3889
 IR Inten    --     26.3404                 5.4476                 6.7790

                      4                      5                      6
                     A'                     A"                     A'
 Frequencies --    842.1156               928.6477              1026.0971
 Red. masses --      2.5252                 2.2225                 1.1902
 Frc consts  --      1.0551                 1.1293                 0.7383
 IR Inten    --      7.2327                24.5439                22.3347

                      7                      8                      9
                     A"                     A"                     A'
 Frequencies --   1069.6202              1083.1516              1095.9399
 Red. masses --      1.3892                 1.5504                 1.4683
 Frc consts  --      0.9364                 1.0717                 1.0391
 IR Inten    --      2.0409                 0.0003                 3.7830

                     10                     11                     12
                     A"                     A'                     A"
 Frequencies --   1159.1704              1259.1438              1456.8917
 Red. masses --      1.3455                 3.1216                 1.0811
 Frc consts  --      1.0652                 2.9160                 1.3520
 IR Inten    --      0.0006                 1.1811                 1.2351

                     13                     14                     15
                     A'                     A"                     A'
 Frequencies --   1481.6429              3087.4590              3087.5743
 Red. masses --      1.2714                 1.0485                 1.0550
 Frc consts  --      1.6444                 5.8885                 5.9257
 IR Inten    --      0.7301                19.7738                11.4056

                     16                     17                     18
                     A"                     A'                     A'
 Frequencies --   3148.8166              3161.4323              3221.3030
 Red. masses --      1.1152                 1.1139                 1.0950
 Frc consts  --      6.5147                 6.5592                 6.6944
 IR Inten    --      0.3633                20.1647                 6.4214

 - Thermochemistry -
 -------------------
 Temperature   298.150 Kelvin.  Pressure   1.00000 Atm.
 Atom     1 has atomic number  6 and mass  12.00000

 Molecular mass:    41.03913 amu.
 Principal axes and moments of inertia in atomic units:
                           1         2         3
     Eigenvalues --    75.33615  86.68953 136.05494
           X            0.00000  -0.08716   0.99619
           Y            0.00000   0.99619   0.08716
           Z            1.00000  -0.00000  -0.00000
 This molecule is an asymmetric top.
 Rotational symmetry number  1.
 Rotational temperatures (Kelvin)      1.14970     0.99913     0.63661
 Rotational constants (GHZ):          23.95585    20.81845    13.26480
 Zero-point vibrational energy     174707.7 (Joules/Mol)
                                   41.75614 (Kcal/Mol)
 Warning -- explicit consideration of   1 degrees of freedom as
           vibrations may cause significant error
 Vibrational temperatures:    799.74  1094.93  1126.52  1211.62  1336.12
          (Kelvin)           1476.32  1538.94  1558.41  1576.81  1667.79
                             1811.63  2096.14  2131.75  4442.16  4442.33
                             4530.44  4548.60  4634.74

 Zero-point correction=                           0.066543 (Hartree/Particle)
 Thermal correction to Energy=                    0.070008
 Thermal correction to Enthalpy=                  0.070952
 Thermal correction to Gibbs Free Energy=         0.041712
 Sum of electronic and zero-point Energies=           -117.196823
 Sum of electronic and thermal Energies=              -117.193357
 Sum of electronic and thermal Enthalpies=            -117.192413
 Sum of electronic and thermal Free Energies=         -117.221653

                     E (Thermal)             CV                S
                      KCal/Mol        Cal/Mol-Kelvin    Cal/Mol-Kelvin
 Total                   43.931             11.335             61.542
 Electronic               0.000              0.000              1.377
 Translational            0.889              2.981             37.063
 Rotational               0.889              2.981             21.413
 Vibrational             42.153              5.374              1.689
 Vibration     1          0.911              1.127              0.532

                           ! Non-Optimized Parameters !
 Normal termination of Gaussian 16 at Sat Sep 30 23:45:28 2023.
 Gaussian 16:  ES64L-G16RevB.01 20-Dec-2017

 ---------------------------------
 # rohf/gen geom=check guess=check
 ---------------------------------

 -----------------------------
 cyclopropyl, ROHF/cc-pVTZ-F12
 -----------------------------
 Structure from the checkpoint file:  "cyc3yl.chk"
 Charge =  0 Multiplicity = 2

                         Standard orientation:
 ---------------------------------------------------------------------
 Center     Atomic      Atomic             Coordinates (Angstroms)
 Number     Number       Type             X           Y           Z
 ---------------------------------------------------------------------
      1          6           0        0.027082    0.883080    0.000000
      2          6           0        0.027082   -0.362463    0.766418
      3          6           0        0.027082   -0.362463   -0.766418
      4          1           0       -0.628297    1.738335    0.000000
      5          1           0       -0.871984   -0.659660    1.295981
      6          1           0       -0.871984   -0.659660   -1.295981
      7          1           0        0.942396   -0.683970    1.251364
      8          1           0        0.942396   -0.683970   -1.251364
 ---------------------------------------------------------------------

 SCF Done:  E(ROHF) =  -116.459869420     A.U. after   15 cycles

 The electronic state is 2-A'.
 Alpha  occ. eigenvalues --  -11.23047 -11.22896 -11.22863  -1.13171  -0.82649
 Alpha  occ. eigenvalues --   -0.77395  -0.65305  -0.61604  -0.51544  -0.44102
 Alpha  occ. eigenvalues --   -0.42798  -0.07326
 Alpha virt. eigenvalues --    0.05141   0.05366   0.06164   0.07036   0.09572
 Alpha virt. eigenvalues --    0.09913   0.10234   0.10543   0.12284   0.12997
 Alpha virt. eigenvalues --    0.17487   0.18484   0.22867   0.24951   0.26560

 Mulliken charges and spin densities:
               1          2
     1  C   -0.124487   0.913396
     2  C   -0.203525   0.014659
     3  C   -0.203525   0.014659
     4  H    0.147669   0.021615
     5  H    0.089668   0.009454
     6  H    0.089668   0.009454
     7  H    0.102266   0.008381
     8  H    0.102266   0.008381
 Sum of Mulliken charges =  -0.00000   1.00000

 Dipole moment (field-independent basis, Debye):
    X=             -0.4696    Y=             -0.2737    Z=             -0.0000  Tot=              0.5435
 Quadrupole moment (field-independent basis, Debye-Ang):
   XX=            -18.6359   YY=            -20.1229   ZZ=            -19.7110
   XY=             -1.1496   XZ=              0.0000   YZ=              0.0000

 Normal termination of Gaussian 16 at Sat Sep 30 23:46:06 2023.
