 Gaussian 16, Revision B.01,
 Gaussian 16:  ES64L-G16RevB.01 20-Dec-2017

 --------------------
 # b3lyp/gen opt freq
 --------------------

 ---------------------------------
 methylcyclopropane, B3LYP/pcseg-2
 ---------------------------------
 Symbolic Z-matrix:
 Charge =  0 Multiplicity = 1

 SCF Done:  E(RB3LYP) =  -157.277668626     A.U. after   12 cycles
 SCF Done:  E(RB3LYP) =  -157.277684026     A.U. after    7 cycles
 Optimization completed.
    -- Stationary point found.
 Normal termination of Gaussian 16 at Fri Jun 17 13:45:41 2022.

 ------------------------------------------------------------------
 #N Geom=AllCheck Guess=TCheck SCRF=Check GenChk RB3LYP/ChkBas Freq
 ------------------------------------------------------------------

 Structure from the checkpoint file:  "/wrk/irikura/Gau-32749.chk"
 ---------------------------------
 methylcyclopropane, B3LYP/pcseg-2
 ---------------------------------
 Charge =  0 Multiplicity = 1

                         Standard orientation:
 ---------------------------------------------------------------------
 Center     Atomic      Atomic             Coordinates (Angstroms)
 Number     Number       Type             X           Y           Z
 ---------------------------------------------------------------------
      1          6           0        0.345364    0.400787   -0.000000
      2          6           0       -0.877667    1.284830   -0.000000
      3          1           0        1.286623    0.937759   -0.000000
      4          6           0        0.345364   -0.900612    0.754088
      5          6           0        0.345364   -0.900612   -0.754088
      6          1           0        1.248101   -1.204225    1.265328
      7          1           0        1.248101   -1.204225   -1.265328
      8          1           0       -0.567576   -1.188753    1.257976
      9          1           0       -0.567576   -1.188753   -1.257976
     10          1           0       -1.790808    0.686594    0.000000
     11          1           0       -0.903711    1.927622    0.882416
     12          1           0       -0.903711    1.927622   -0.882416
 ---------------------------------------------------------------------

 SCF Done:  E(RB3LYP) =  -157.277684026     A.U. after    1 cycles

 The electronic state is 1-A'.
 Alpha  occ. eigenvalues --  -10.17585 -10.16697 -10.16671 -10.16139  -0.85778
 Alpha  occ. eigenvalues --   -0.71106  -0.59898  -0.56816  -0.49476  -0.45607
 Alpha  occ. eigenvalues --   -0.41161  -0.39280  -0.36406  -0.35314  -0.29173
 Alpha  occ. eigenvalues --   -0.28247
 Alpha virt. eigenvalues --    0.02021   0.03601   0.04600   0.04984   0.07902
 Alpha virt. eigenvalues --    0.08382   0.09667   0.10350   0.12543   0.12830
 Alpha virt. eigenvalues --    0.15606   0.16561   0.17843   0.20385   0.21572

 Mulliken charges:
               1
     1  C   -0.038625
     2  C   -0.046735
     3  H    0.045472
     4  C   -0.117859
     5  C   -0.117859
     6  H    0.057435
     7  H    0.057435
     8  H    0.049505
     9  H    0.049505
    10  H    0.004360
    11  H    0.028682
    12  H    0.028682
 Sum of Mulliken charges =  -0.00000

 Dipole moment (field-independent basis, Debye):
    X=              0.0397    Y=              0.1361    Z=             -0.0000  Tot=              0.1418
 Quadrupole moment (field-independent basis, Debye-Ang):
   XX=            -25.7452   YY=            -27.6996   ZZ=            -27.4422
   XY=              0.2419   XZ=              0.0000   YZ=             -0.0000

  Exact polarizability:  45.471  -3.553  51.181   0.000  -0.000  47.285
 Approx polarizability:  61.858  -0.645  67.190   0.000  -0.000  66.290

                      1                      2                      3
                     A"                     A"                     A'
 Frequencies --    221.7357               343.0532               365.9577
 Red. masses --      1.0652                 1.9969                 2.1162
 Frc consts  --      0.0309                 0.1385                 0.1670
 IR Inten    --      0.0008                 0.6258                 0.1719

                      4                      5                      6
                     A'                     A'                     A"
 Frequencies --    767.0704               796.1620               824.7372
 Red. masses --      1.8285                 1.2832                 1.1021
 Frc consts  --      0.6339                 0.4792                 0.4417
 IR Inten    --      4.4682                 3.5488                 5.9719

                      7                      8                      9
                     A"                     A'                     A'
 Frequencies --    864.0908               943.2069               996.6851
 Red. masses --      3.2066                 1.2959                 1.9321
 Frc consts  --      1.4106                 0.6793                 1.1308
 IR Inten    --      7.8339                 3.2754                 6.8301

                     10                     11                     12
                     A'                     A"                     A"
 Frequencies --   1051.0737              1075.7896              1109.9012
 Red. masses --      1.3834                 1.3779                 1.3047
 Frc consts  --      0.9005                 0.9396                 0.9470
 IR Inten    --      9.6503                 1.3023                 4.0439

                     13                     14                     15
                     A"                     A"                     A'
 Frequencies --   1147.1847              1199.2709              1209.6471
 Red. masses --      1.2941                 1.4019                 1.7189
 Frc consts  --      1.0034                 1.1879                 1.4819
 IR Inten    --      0.0698                 0.6721                 0.0028

                     16                     17                     18
                     A'                     A'                     A'
 Frequencies --   1232.5211              1397.4549              1423.4721
 Red. masses --      1.9143                 1.3597                 1.4168
 Frc consts  --      1.7134                 1.5645                 1.6914
 IR Inten    --      0.0023                 2.4825                 3.5391

                     19                     20                     21
                     A"                     A"                     A'
 Frequencies --   1472.5052              1491.0713              1499.9761
 Red. masses --      1.0855                 1.0461                 1.0518
 Frc consts  --      1.3868                 1.3703                 1.3943
 IR Inten    --      2.8487                 2.2666                 9.0073

                     22                     23                     24
                     A'                     A'                     A"
 Frequencies --   1512.1032              3019.2528              3074.6035
 Red. masses --      1.3443                 1.0347                 1.1015
 Frc consts  --      1.8109                 5.5573                 6.1352
 IR Inten    --      1.0862                37.2208                30.7358

                     25                     26                     27
                     A'                     A"                     A'
 Frequencies --   3079.7229              3122.2987              3126.7149
 Red. masses --      1.1002                 1.0504                 1.0582
 Frc consts  --      6.1481                 6.0330                 6.0955
 IR Inten    --     21.2635                26.7892                15.1544

                     28                     29                     30
                     A'                     A"                     A'
 Frequencies --   3133.1445              3196.6056              3211.6729
 Red. masses --      1.0892                 1.1188                 1.1157
 Frc consts  --      6.2994                 6.7356                 6.7804
 IR Inten    --     16.3351                 0.2726                25.6989

 - Thermochemistry -
 -------------------
 Temperature   298.150 Kelvin.  Pressure   1.00000 Atm.
 Atom     1 has atomic number  6 and mass  12.00000

 Molecular mass:    56.06260 amu.
 Principal axes and moments of inertia in atomic units:
                           1         2         3
     Eigenvalues --   114.97777 284.52424 324.05946
           X           -0.47651   0.00000   0.87917
           Y            0.87917   0.00000   0.47651
           Z            0.00000   1.00000   0.00000
 This molecule is an asymmetric top.
 Rotational symmetry number  1.
 Rotational temperatures (Kelvin)      0.75331     0.30442     0.26728
 Rotational constants (GHZ):          15.69644     6.34301     5.56917
 Zero-point vibrational energy     286557.6 (Joules/Mol)
                                   68.48891 (Kcal/Mol)
 Warning -- explicit consideration of   3 degrees of freedom as
           vibrations may cause significant error
 Vibrational temperatures:    319.03   493.58   526.53  1103.64  1145.50
          (Kelvin)           1186.61  1243.23  1357.06  1434.01  1512.26
                             1547.82  1596.90  1650.54  1725.48  1740.41
                             1773.32  2010.63  2048.06  2118.61  2145.32
                             2158.13  2175.58  4344.03  4423.67  4431.03
                             4492.29  4498.65  4507.90  4599.20  4620.88

 Zero-point correction=                           0.109144 (Hartree/Particle)
 Thermal correction to Energy=                    0.113786
 Thermal correction to Enthalpy=                  0.114730
 Thermal correction to Gibbs Free Energy=         0.082624
 Sum of electronic and zero-point Energies=           -157.168540
 Sum of electronic and thermal Energies=              -157.163898
 Sum of electronic and thermal Enthalpies=            -157.162954
 Sum of electronic and thermal Free Energies=         -157.195060

                     E (Thermal)             CV                S
                      KCal/Mol        Cal/Mol-Kelvin    Cal/Mol-Kelvin
 Total                   71.402             16.491             67.572
 Electronic               0.000              0.000              0.000
 Translational            0.889              2.981             37.993
 Rotational               0.889              2.981             23.876
 Vibrational             69.624             10.529              5.704
 Vibration     1          0.648              1.808              1.945
 Vibration     2          0.722              1.589              1.198
 Vibration     3          0.739              1.542              1.097

 Optimization completed.
    -- Stationary point found.
 Normal termination of Gaussian 16 at Fri Jun 17 13:47:27 2022.
