 Gaussian 16, Revision B.01,

 ---------------------------------------
 # b3lyp/gen opt freq CPHF(Grid=OneStep)
 ---------------------------------------

 ---------------------------------
 methylcyclopropane, B3LYP/pcseg-2
 ---------------------------------
 Symbolic Z-matrix:
 Charge =  0 Multiplicity = 1

 SCF Done:  E(RB3LYP) =  -157.277684026     A.U. after   12 cycles
 Optimization completed.
    -- Stationary point found.
 Normal termination of Gaussian 16 at Fri Sep 29 00:48:10 2023.

 ------------------------------------------------------------------
 #N Geom=AllCheck Guess=TCheck SCRF=Check GenChk RB3LYP/ChkBas Freq
 ------------------------------------------------------------------

 Structure from the checkpoint file:  "cyc3me.chk"
 ---------------------------------
 methylcyclopropane, B3LYP/pcseg-2
 ---------------------------------
 Charge =  0 Multiplicity = 1

 SCF Done:  E(RB3LYP) =  -157.277684026     A.U. after    1 cycles

  Exact polarizability:  45.471  -3.553  51.180   0.000  -0.000  47.285
 Approx polarizability:  61.858  -0.645  67.190  -0.000  -0.000  66.290

                      1                      2                      3
                     A"                     A"                     A'
 Frequencies --    221.7363               343.0516               365.9545
 Red. masses --      1.0652                 1.9969                 2.1162
 Frc consts  --      0.0309                 0.1385                 0.1670
 IR Inten    --      0.0008                 0.6260                 0.1719

                      4                      5                      6
                     A'                     A'                     A"
 Frequencies --    767.0728               796.1628               824.7357
 Red. masses --      1.8286                 1.2831                 1.1020
 Frc consts  --      0.6339                 0.4792                 0.4416
 IR Inten    --      4.4680                 3.5483                 5.9691

                      7                      8                      9
                     A"                     A'                     A'
 Frequencies --    864.0837               943.2041               996.6866
 Red. masses --      3.2070                 1.2959                 1.9321
 Frc consts  --      1.4108                 0.6793                 1.1308
 IR Inten    --      7.8386                 3.2749                 6.8300

                     10                     11                     12
                     A'                     A"                     A"
 Frequencies --   1051.0757              1075.7921              1109.9032
 Red. masses --      1.3835                 1.3779                 1.3047
 Frc consts  --      0.9005                 0.9396                 0.9470
 IR Inten    --      9.6500                 1.3022                 4.0438

                     13                     14                     15
                     A"                     A"                     A'
 Frequencies --   1147.1855              1199.2701              1209.6481
 Red. masses --      1.2941                 1.4019                 1.7189
 Frc consts  --      1.0034                 1.1879                 1.4819
 IR Inten    --      0.0697                 0.6720                 0.0028

                     16                     17                     18
                     A'                     A'                     A'
 Frequencies --   1232.5207              1397.4588              1423.4755
 Red. masses --      1.9143                 1.3598                 1.4167
 Frc consts  --      1.7134                 1.5646                 1.6913
 IR Inten    --      0.0023                 2.4837                 3.5378

                     19                     20                     21
                     A"                     A"                     A'
 Frequencies --   1472.5098              1491.0757              1499.9763
 Red. masses --      1.0855                 1.0461                 1.0518
 Frc consts  --      1.3868                 1.3703                 1.3944
 IR Inten    --      2.8471                 2.2664                 9.0077

                     22                     23                     24
                     A'                     A'                     A"
 Frequencies --   1512.1081              3019.2596              3074.6085
 Red. masses --      1.3442                 1.0347                 1.1015
 Frc consts  --      1.8109                 5.5573                 6.1352
 IR Inten    --      1.0845                37.2299                30.7307

                     25                     26                     27
                     A'                     A"                     A'
 Frequencies --   3079.7339              3122.3000              3126.7146
 Red. masses --      1.1002                 1.0504                 1.0582
 Frc consts  --      6.1482                 6.0330                 6.0955
 IR Inten    --     21.2567                26.7924                15.1640

                     28                     29                     30
                     A'                     A"                     A'
 Frequencies --   3133.1422              3196.6046              3211.6717
 Red. masses --      1.0892                 1.1188                 1.1157
 Frc consts  --      6.2994                 6.7356                 6.7804
 IR Inten    --     16.3295                 0.2714                25.6954

 - Thermochemistry -
 -------------------
 Temperature   298.150 Kelvin.  Pressure   1.00000 Atm.
 Atom     1 has atomic number  6 and mass  12.00000

 Molecular mass:    56.06260 amu.
 Principal axes and moments of inertia in atomic units:
                           1         2         3
     Eigenvalues --   114.97772 284.52420 324.05940
           X           -0.47651   0.00000   0.87917
           Y            0.87917   0.00000   0.47651
           Z           -0.00000   1.00000  -0.00000
 This molecule is an asymmetric top.
 Rotational symmetry number  1.
 Rotational temperatures (Kelvin)      0.75331     0.30442     0.26728
 Rotational constants (GHZ):          15.69644     6.34301     5.56917
 Zero-point vibrational energy     286557.8 (Joules/Mol)
                                   68.48896 (Kcal/Mol)
 Warning -- explicit consideration of   3 degrees of freedom as
           vibrations may cause significant error
 Vibrational temperatures:    319.03   493.57   526.53  1103.65  1145.50
          (Kelvin)           1186.61  1243.22  1357.06  1434.01  1512.26
                             1547.82  1596.90  1650.54  1725.48  1740.41
                             1773.32  2010.63  2048.06  2118.61  2145.33
                             2158.13  2175.59  4344.04  4423.68  4431.05
                             4492.29  4498.64  4507.89  4599.20  4620.88

 Zero-point correction=                           0.109144 (Hartree/Particle)
 Thermal correction to Energy=                    0.113786
 Thermal correction to Enthalpy=                  0.114730
 Thermal correction to Gibbs Free Energy=         0.082624
 Sum of electronic and zero-point Energies=           -157.168540
 Sum of electronic and thermal Energies=              -157.163898
 Sum of electronic and thermal Enthalpies=            -157.162954
 Sum of electronic and thermal Free Energies=         -157.195060

                     E (Thermal)             CV                S
                      KCal/Mol        Cal/Mol-Kelvin    Cal/Mol-Kelvin
 Total                   71.402             16.491             67.573
 Electronic               0.000              0.000              0.000
 Translational            0.889              2.981             37.993
 Rotational               0.889              2.981             23.876
 Vibrational             69.624             10.529              5.704
 Vibration     1          0.648              1.808              1.945
 Vibration     2          0.722              1.589              1.198
 Vibration     3          0.739              1.542              1.097

 Optimization completed.
    -- Stationary point found.
 Normal termination of Gaussian 16 at Fri Sep 29 00:55:46 2023.
 Gaussian 16:  ES64L-G16RevB.01 20-Dec-2017

 ---------------------------------
 # rohf/gen geom=check guess=check
 ---------------------------------

 ------------------------------------
 methylcyclopropane, ROHF/cc-pVTZ-F12
 ------------------------------------
 Structure from the checkpoint file:  "cyc3me.chk"
 Charge =  0 Multiplicity = 1

                         Standard orientation:
 ---------------------------------------------------------------------
 Center     Atomic      Atomic             Coordinates (Angstroms)
 Number     Number       Type             X           Y           Z
 ---------------------------------------------------------------------
      1          6           0        0.345364    0.400787   -0.000000
      2          6           0       -0.877667    1.284830   -0.000000
      3          1           0        1.286623    0.937759   -0.000000
      4          6           0        0.345364   -0.900612    0.754088
      5          6           0        0.345364   -0.900612   -0.754088
      6          1           0        1.248101   -1.204225    1.265328
      7          1           0        1.248101   -1.204225   -1.265328
      8          1           0       -0.567576   -1.188753    1.257976
      9          1           0       -0.567576   -1.188753   -1.257976
     10          1           0       -1.790808    0.686594   -0.000000
     11          1           0       -0.903711    1.927622    0.882416
     12          1           0       -0.903711    1.927622   -0.882416
 ---------------------------------------------------------------------

 SCF Done:  E(ROHF) =  -156.160284891     A.U. after   10 cycles

 The electronic state is 1-A'.
 Alpha  occ. eigenvalues --  -11.22594 -11.21748 -11.21684 -11.21279  -1.13942
 Alpha  occ. eigenvalues --   -0.96007  -0.81824  -0.77515  -0.66397  -0.61334
 Alpha  occ. eigenvalues --   -0.56408  -0.54128  -0.50917  -0.49194  -0.41065
 Alpha  occ. eigenvalues --   -0.40099
 Alpha virt. eigenvalues --    0.05189   0.05228   0.05298   0.05654   0.08439
 Alpha virt. eigenvalues --    0.09135   0.09466   0.09519   0.09988   0.12422
 Alpha virt. eigenvalues --    0.13009   0.13221   0.14383   0.17831   0.18569

 Mulliken charges and spin densities:
               1          2
     1  C    0.006691   0.000000
     2  C   -0.293511   0.000000
     3  H    0.085925   0.000000
     4  C   -0.215445   0.000000
     5  C   -0.215445   0.000000
     6  H    0.100172   0.000000
     7  H    0.100172   0.000000
     8  H    0.096043   0.000000
     9  H    0.096043   0.000000
    10  H    0.065874   0.000000
    11  H    0.086740   0.000000
    12  H    0.086740   0.000000
 Sum of Mulliken charges =  -0.00000   0.00000

 Dipole moment (field-independent basis, Debye):
    X=              0.0358    Y=              0.1321    Z=             -0.0000  Tot=              0.1368
 Quadrupole moment (field-independent basis, Debye-Ang):
   XX=            -25.6371   YY=            -27.6041   ZZ=            -27.3117
   XY=              0.2683   XZ=             -0.0000   YZ=              0.0000

 Normal termination of Gaussian 16 at Fri Sep 29 00:57:15 2023.
