 Gaussian 16, Revision B.01,
 Gaussian 16:  ES64L-G16RevB.01 20-Dec-2017

 --------------------
 # b3lyp/gen opt freq
 --------------------

 ---------------------------
 cyclopropane, B3LYP/pcseg-2
 ---------------------------
 Symbolic Z-matrix:
 Charge =  0 Multiplicity = 1

 SCF Done:  E(RB3LYP) =  -117.946010251     A.U. after    9 cycles
 SCF Done:  E(RB3LYP) =  -117.946183263     A.U. after    7 cycles
 Optimization completed.
    -- Stationary point found.
 Normal termination of Gaussian 16 at Thu Feb 24 16:49:21 2022.

 ------------------------------------------------------------------
 #N Geom=AllCheck Guess=TCheck SCRF=Check GenChk RB3LYP/ChkBas Freq
 ------------------------------------------------------------------

 Structure from the checkpoint file:  "/wrk/irikura/Gau-25920.chk"
 ---------------------------
 cyclopropane, B3LYP/pcseg-2
 ---------------------------
 Charge =  0 Multiplicity = 1

                         Standard orientation:
 ---------------------------------------------------------------------
 Center     Atomic      Atomic             Coordinates (Angstroms)
 Number     Number       Type             X           Y           Z
 ---------------------------------------------------------------------
      1          6           0       -0.000000    0.868507    0.000000
      2          6           0        0.752149   -0.434254    0.000000
      3          6           0       -0.752149   -0.434254    0.000000
      4          1           0       -0.000000    1.456469    0.906888
      5          1           0        1.261339   -0.728234    0.906888
      6          1           0       -1.261339   -0.728234    0.906888
      7          1           0        0.000000    1.456469   -0.906888
      8          1           0        1.261339   -0.728234   -0.906888
      9          1           0       -1.261339   -0.728234   -0.906888
 ---------------------------------------------------------------------

 SCF Done:  E(RB3LYP) =  -117.946183263     A.U. after    1 cycles

 The electronic state is 1-A1'.
 Alpha  occ. eigenvalues --  -10.17064 -10.17023 -10.17023  -0.85193  -0.59921
 Alpha  occ. eigenvalues --   -0.59921  -0.49678  -0.46964  -0.36614  -0.36614
 Alpha  occ. eigenvalues --   -0.29939  -0.29939
 Alpha virt. eigenvalues --    0.02246   0.03856   0.04882   0.04882   0.11061
 Alpha virt. eigenvalues --    0.11061   0.11982   0.13232   0.15473   0.15473
 Alpha virt. eigenvalues --    0.21153   0.21153   0.23273   0.27121   0.27121

 Mulliken charges:
               1
     1  C   -0.105844
     2  C   -0.105844
     3  C   -0.105844
     4  H    0.052922
     5  H    0.052922
     6  H    0.052922
     7  H    0.052922
     8  H    0.052922
     9  H    0.052922
 Sum of Mulliken charges =  -0.00000

 Dipole moment (field-independent basis, Debye):
    X=              0.0000    Y=              0.0000    Z=             -0.0000  Tot=              0.0000
 Quadrupole moment (field-independent basis, Debye-Ang):
   XX=            -20.9264   YY=            -20.9264   ZZ=            -18.6277
   XY=              0.0000   XZ=              0.0000   YZ=             -0.0000

  Exact polarizability:  36.831   0.000  36.830  -0.000   0.000  32.847
 Approx polarizability:  49.500  -0.000  49.500  -0.000   0.000  45.069

                      1                      2                      3
                     E"                     E"                     A2"
 Frequencies --    744.4219               744.4219               861.7263
 Red. masses --      1.0215                 1.0215                 1.0448
 Frc consts  --      0.3335                 0.3335                 0.4571
 IR Inten    --      0.0000                 0.0000                 0.6485

                      4                      5                      6
                     E'                     E'                     E'
 Frequencies --    878.9893               878.9893              1055.4944
 Red. masses --      3.8613                 3.8613                 1.2524
 Frc consts  --      1.7577                 1.7577                 0.8220
 IR Inten    --     19.7296                19.7298                10.6527

                      7                      8                      9
                     E'                     A2'                    A1"
 Frequencies --   1055.4944              1097.6535              1153.8508
 Red. masses --      1.2524                 1.4273                 1.0078
 Frc consts  --      0.8220                 1.0132                 0.7906
 IR Inten    --     10.6530                 0.0000                 0.0000

                     10                     11                     12
                     A1'                    E"                     E"
 Frequencies --   1210.0554              1213.4045              1213.4045
 Red. masses --      2.7759                 1.4498                 1.4498
 Frc consts  --      2.3948                 1.2577                 1.2577
 IR Inten    --      0.0000                 0.0000                 0.0000

                     13                     14                     15
                     E'                     E'                     A1'
 Frequencies --   1477.1584              1477.1584              1519.4076
 Red. masses --      1.0872                 1.0872                 1.3057
 Frc consts  --      1.3977                 1.3977                 1.7759
 IR Inten    --      1.0131                 1.0132                 0.0000

                     16                     17                     18
                     E'                     E'                     A1'
 Frequencies --   3129.5158              3129.5158              3136.6294
 Red. masses --      1.0504                 1.0504                 1.0619
 Frc consts  --      6.0609                 6.0609                 6.1557
 IR Inten    --     25.6348                25.6350                 0.0000

                     19                     20                     21
                     E"                     E"                     A2"
 Frequencies --   3202.4384              3202.4384              3223.8231
 Red. masses --      1.1193                 1.1193                 1.1153
 Frc consts  --      6.7633                 6.7633                 6.8296
 IR Inten    --      0.0000                 0.0000                29.9300

 - Thermochemistry -
 -------------------
 Temperature   298.150 Kelvin.  Pressure   1.00000 Atm.
 Atom     1 has atomic number  6 and mass  12.00000

 Molecular mass:    42.04695 amu.
 Principal axes and moments of inertia in atomic units:
                           1         2         3
     Eigenvalues --    89.14977  89.14977 142.77965
           X            0.82569   0.56412   0.00000
           Y           -0.56412   0.82569   0.00000
           Z           -0.00000   0.00000   1.00000
 This molecule is an oblate symmetric top.
 Rotational symmetry number  6.
 Rotational temperatures (Kelvin)      0.97156     0.97156     0.60663
 Rotational constants (GHZ):          20.24393    20.24393    12.64004
 Zero-point vibrational energy     212971.1 (Joules/Mol)
                                   50.90132 (Kcal/Mol)
 Vibrational temperatures:   1071.06  1071.06  1239.83  1264.67  1264.67
          (Kelvin)           1518.62  1518.62  1579.28  1660.13  1741.00
                             1745.82  1745.82  2125.30  2125.30  2186.09
                             4502.68  4502.68  4512.91  4607.59  4607.59
                             4638.36

 Zero-point correction=                           0.081116 (Hartree/Particle)
 Thermal correction to Energy=                    0.084488
 Thermal correction to Enthalpy=                  0.085432
 Thermal correction to Gibbs Free Energy=         0.058526
 Sum of electronic and zero-point Energies=           -117.865067
 Sum of electronic and thermal Energies=              -117.861695
 Sum of electronic and thermal Enthalpies=            -117.860751
 Sum of electronic and thermal Free Energies=         -117.887657

                     E (Thermal)             CV                S
                      KCal/Mol        Cal/Mol-Kelvin    Cal/Mol-Kelvin
 Total                   53.017             11.051             56.629
 Electronic               0.000              0.000              0.000
 Translational            0.889              2.981             37.135
 Rotational               0.889              2.981             18.095
 Vibrational             51.240              5.090              1.398

 Optimization completed.
    -- Stationary point found.
 Normal termination of Gaussian 16 at Thu Feb 24 16:49:57 2022.
