 Gaussian 16, Revision B.01,
 Gaussian 16:  ES64L-G16RevB.01 20-Dec-2017

 --------------------
 # b3lyp/gen opt freq
 --------------------

 --------------------------
 cyclopropyl, B3LYP/pcseg-2
 --------------------------
 Symbolic Z-matrix:
 Charge =  0 Multiplicity = 2

 SCF Done:  E(UB3LYP) =  -117.263293421     A.U. after   13 cycles
 SCF Done:  E(UB3LYP) =  -117.263363884     A.U. after    9 cycles
 SCF Done:  E(UB3LYP) =  -117.263365201     A.U. after    7 cycles
 Optimization completed.
    -- Stationary point found.
 Normal termination of Gaussian 16 at Thu Jun 16 14:58:53 2022.

 ------------------------------------------------------------------
 #N Geom=AllCheck Guess=TCheck SCRF=Check GenChk UB3LYP/ChkBas Freq
 ------------------------------------------------------------------

 Structure from the checkpoint file:  "/wrk/irikura/Gau-15882.chk"
 --------------------------
 cyclopropyl, B3LYP/pcseg-2
 --------------------------
 Charge =  0 Multiplicity = 2

                         Standard orientation:
 ---------------------------------------------------------------------
 Center     Atomic      Atomic             Coordinates (Angstroms)
 Number     Number       Type             X           Y           Z
 ---------------------------------------------------------------------
      1          6           0        0.027082    0.883080   -0.000000
      2          6           0        0.027082   -0.362463    0.766418
      3          6           0        0.027082   -0.362463   -0.766418
      4          1           0       -0.628297    1.738335   -0.000000
      5          1           0       -0.871984   -0.659660    1.295981
      6          1           0       -0.871984   -0.659660   -1.295981
      7          1           0        0.942396   -0.683970    1.251364
      8          1           0        0.942396   -0.683970   -1.251364
 ---------------------------------------------------------------------

 SCF Done:  E(UB3LYP) =  -117.263365201     A.U. after    1 cycles

 The electronic state is 2-A'.
 Alpha  occ. eigenvalues --  -10.19222 -10.18059 -10.18036  -0.86634  -0.61103
 Alpha  occ. eigenvalues --   -0.58709  -0.49659  -0.47240  -0.37627  -0.32286
 Alpha  occ. eigenvalues --   -0.31472  -0.22030
 Alpha virt. eigenvalues --    0.02443   0.03911   0.04615   0.06070   0.10756
 Alpha virt. eigenvalues --    0.11784   0.12871   0.14953   0.15204   0.19574
 Alpha virt. eigenvalues --    0.20923   0.23715   0.27286   0.28003   0.29637

  Beta  occ. eigenvalues --  -10.18087 -10.18062 -10.17729  -0.85405  -0.60757
  Beta  occ. eigenvalues --   -0.56577  -0.48847  -0.45799  -0.37076  -0.31268
  Beta  occ. eigenvalues --   -0.30830
  Beta virt. eigenvalues --   -0.07277   0.02550   0.04261   0.04652   0.06287
  Beta virt. eigenvalues --    0.10794   0.12339   0.12941   0.15295   0.15456
  Beta virt. eigenvalues --    0.20987   0.21250   0.25003   0.27830   0.28422

 Mulliken charges and spin densities:
               1          2
     1  C   -0.100618   0.948857
     2  C   -0.091129  -0.026439
     3  C   -0.091129  -0.026439
     4  H    0.058097  -0.010206
     5  H    0.051443   0.024242
     6  H    0.051443   0.024242
     7  H    0.060946   0.032872
     8  H    0.060946   0.032872
 Sum of Mulliken charges =   0.00000   1.00000

 Dipole moment (field-independent basis, Debye):
    X=             -0.4927    Y=             -0.3885    Z=              0.0000  Tot=              0.6275
 Quadrupole moment (field-independent basis, Debye-Ang):
   XX=            -18.7307   YY=            -20.3138   ZZ=            -19.7520
   XY=             -1.1906   XZ=              0.0000   YZ=             -0.0000

  Exact polarizability:  30.382  -1.171  36.277  -0.000  -0.000  37.246
 Approx polarizability:  41.060  -1.350  49.234   0.000   0.000  50.094

                      1                      2                      3
                     A'                     A'                     A"
 Frequencies --    555.7967               761.0145               782.9582
 Red. masses --      1.0638                 1.2725                 1.0768
 Frc consts  --      0.1936                 0.4342                 0.3889
 IR Inten    --     26.3421                 5.4465                 6.7777

                      4                      5                      6
                     A'                     A"                     A'
 Frequencies --    842.1133               928.6338              1026.0970
 Red. masses --      2.5253                 2.2224                 1.1902
 Frc consts  --      1.0551                 1.1292                 0.7383
 IR Inten    --      7.2341                24.5442                22.3332

                      7                      8                      9
                     A"                     A"                     A'
 Frequencies --   1069.6145              1083.1488              1095.9395
 Red. masses --      1.3892                 1.5504                 1.4683
 Frc consts  --      0.9364                 1.0717                 1.0391
 IR Inten    --      2.0415                 0.0003                 3.7821

                     10                     11                     12
                     A"                     A'                     A"
 Frequencies --   1159.1689              1259.1423              1456.8918
 Red. masses --      1.3455                 3.1216                 1.0811
 Frc consts  --      1.0652                 2.9160                 1.3520
 IR Inten    --      0.0006                 1.1810                 1.2351

                     13                     14                     15
                     A'                     A"                     A'
 Frequencies --   1481.6434              3087.4617              3087.5767
 Red. masses --      1.2714                 1.0485                 1.0550
 Frc consts  --      1.6444                 5.8885                 5.9258
 IR Inten    --      0.7301                19.7735                11.4059

                     16                     17                     18
                     A"                     A'                     A'
 Frequencies --   3148.8200              3161.4351              3221.3019
 Red. masses --      1.1152                 1.1139                 1.0950
 Frc consts  --      6.5147                 6.5592                 6.6944
 IR Inten    --      0.3633                20.1648                 6.4201

 - Thermochemistry -
 -------------------
 Temperature   298.150 Kelvin.  Pressure   1.00000 Atm.
 Atom     1 has atomic number  6 and mass  12.00000

 Molecular mass:    41.03913 amu.
 Principal axes and moments of inertia in atomic units:
                           1         2         3
     Eigenvalues --    75.33619  86.68952 136.05498
           X            0.00000  -0.08716   0.99619
           Y           -0.00000   0.99619   0.08716
           Z            1.00000   0.00000  -0.00000
 This molecule is an asymmetric top.
 Rotational symmetry number  1.
 Rotational temperatures (Kelvin)      1.14970     0.99913     0.63661
 Rotational constants (GHZ):          23.95583    20.81845    13.26479
 Zero-point vibrational energy     174707.2 (Joules/Mol)
                                   41.75602 (Kcal/Mol)
 Warning -- explicit consideration of   1 degrees of freedom as
           vibrations may cause significant error
 Vibrational temperatures:    799.67  1094.93  1126.50  1211.61  1336.10
          (Kelvin)           1476.32  1538.94  1558.41  1576.81  1667.79
                             1811.62  2096.14  2131.75  4442.17  4442.33
                             4530.45  4548.60  4634.73

 Zero-point correction=                           0.066542 (Hartree/Particle)
 Thermal correction to Energy=                    0.070008
 Thermal correction to Enthalpy=                  0.070952
 Thermal correction to Gibbs Free Energy=         0.041712
 Sum of electronic and zero-point Energies=           -117.196823
 Sum of electronic and thermal Energies=              -117.193357
 Sum of electronic and thermal Enthalpies=            -117.192413
 Sum of electronic and thermal Free Energies=         -117.221654

                     E (Thermal)             CV                S
                      KCal/Mol        Cal/Mol-Kelvin    Cal/Mol-Kelvin
 Total                   43.931             11.335             61.542
 Electronic               0.000              0.000              1.377
 Translational            0.889              2.981             37.063
 Rotational               0.889              2.981             21.413
 Vibrational             42.153              5.374              1.689
 Vibration     1          0.911              1.127              0.532

                           ! Non-Optimized Parameters !
 Normal termination of Gaussian 16 at Thu Jun 16 14:59:46 2022.
