 Gaussian 16, Revision B.01,
 Gaussian 16:  ES64L-G16RevB.01 20-Dec-2017

 --------------------
 # b3lyp/gen opt freq
 --------------------

 --------------------------
 cyclobutane, B3LYP/pcseg-2
 --------------------------
 Symbolic Z-matrix:
 Charge =  0 Multiplicity = 1

 SCF Done:  E(RB3LYP) =  -157.275713676     A.U. after    9 cycles
 SCF Done:  E(RB3LYP) =  -157.275767290     A.U. after    6 cycles
 Optimization completed.
    -- Stationary point found.
 Normal termination of Gaussian 16 at Tue Jun 14 16:59:41 2022.

 ------------------------------------------------------------------
 #N Geom=AllCheck Guess=TCheck SCRF=Check GenChk RB3LYP/ChkBas Freq
 ------------------------------------------------------------------

 Structure from the checkpoint file:  "/wrk/irikura/Gau-2658.chk"
 --------------------------
 cyclobutane, B3LYP/pcseg-2
 --------------------------
 Charge =  0 Multiplicity = 1

                         Standard orientation:
 ---------------------------------------------------------------------
 Center     Atomic      Atomic             Coordinates (Angstroms)
 Number     Number       Type             X           Y           Z
 ---------------------------------------------------------------------
      1          6           0        0.000000    1.082812    0.122477
      2          6           0       -0.000000   -1.082812    0.122477
      3          6           0       -1.082812    0.000000   -0.122477
      4          6           0        1.082812   -0.000000   -0.122477
      5          1           0        0.000000    1.424137    1.157991
      6          1           0        0.000000    1.955821   -0.528877
      7          1           0       -0.000000   -1.424137    1.157991
      8          1           0       -0.000000   -1.955821   -0.528877
      9          1           0       -1.424137    0.000000   -1.157991
     10          1           0       -1.955821    0.000000    0.528877
     11          1           0        1.424137   -0.000000   -1.157991
     12          1           0        1.955821   -0.000000    0.528877
 ---------------------------------------------------------------------

 SCF Done:  E(RB3LYP) =  -157.275767290     A.U. after    1 cycles

 The electronic state is 1-A1.
 Alpha  occ. eigenvalues --  -10.16414 -10.16394 -10.16394 -10.16374  -0.83794
 Alpha  occ. eigenvalues --   -0.65532  -0.65532  -0.54647  -0.47929  -0.47603
 Alpha  occ. eigenvalues --   -0.38597  -0.38597  -0.35387  -0.31620  -0.30662
 Alpha  occ. eigenvalues --   -0.30662
 Alpha virt. eigenvalues --    0.01684   0.03462   0.04168   0.04168   0.07976
 Alpha virt. eigenvalues --    0.09849   0.09849   0.09944   0.13312   0.13312
 Alpha virt. eigenvalues --    0.16516   0.17440   0.18009   0.19410   0.20372

 Mulliken charges:
               1
     1  C   -0.076801
     2  C   -0.076801
     3  C   -0.076801
     4  C   -0.076801
     5  H    0.028878
     6  H    0.047923
     7  H    0.028878
     8  H    0.047923
     9  H    0.028878
    10  H    0.047923
    11  H    0.028878
    12  H    0.047923
 Sum of Mulliken charges =  -0.00000

 Dipole moment (field-independent basis, Debye):
    X=             -0.0000    Y=             -0.0000    Z=             -0.0000  Tot=              0.0000
 Quadrupole moment (field-independent basis, Debye-Ang):
   XX=            -27.6198   YY=            -27.6198   ZZ=            -26.0830
   XY=              0.0000   XZ=             -0.0000   YZ=              0.0000

  Exact polarizability:  49.501  -0.000  49.501   0.000  -0.000  43.489
 Approx polarizability:  64.856  -0.000  64.856   0.000  -0.000  62.336

                      1                      2                      3
                     A1                     B2                      E
 Frequencies --    185.7657               638.0148               753.5433
 Red. masses --      1.4883                 1.5624                 1.1990
 Frc consts  --      0.0303                 0.3747                 0.4011
 IR Inten    --      0.0000                 2.4776                 0.1865

                      4                      5                      6
                      E                     B2                      E
 Frequencies --    753.5433               885.0981               911.3609
 Red. masses --      1.1990                 1.9688                 2.0974
 Frc consts  --      0.4011                 0.9087                 1.0264
 IR Inten    --      0.1865                 0.0023                 2.3408

                      7                      8                      9
                      E                     B1                     A2
 Frequencies --    911.3609               939.4307               963.8151
 Red. masses --      2.0974                 2.7998                 1.0079
 Frc consts  --      1.0264                 1.4558                 0.5516
 IR Inten    --      2.3408                 0.0000                 0.0000

                     10                     11                     12
                     A1                     B1                     A1
 Frequencies --   1011.1405              1171.6476              1177.0747
 Red. masses --      3.9662                 1.2355                 2.0489
 Frc consts  --      2.3892                 0.9993                 1.6726
 IR Inten    --      0.0000                 0.0000                 0.0000

                     13                     14                     15
                      E                      E                     B1
 Frequencies --   1248.9565              1248.9565              1255.8843
 Red. masses --      1.2710                 1.2710                 1.1096
 Frc consts  --      1.1681                 1.1681                 1.0311
 IR Inten    --      0.4445                 0.4445                 0.0000

                     16                     17                     18
                     A2                      E                      E
 Frequencies --   1265.6095              1288.3900              1288.3900
 Red. masses --      1.3816                 1.4524                 1.4524
 Frc consts  --      1.3039                 1.4205                 1.4205
 IR Inten    --      0.0000                 2.1032                 2.1032

                     19                     20                     21
                      E                      E                     B2
 Frequencies --   1483.5182              1483.5182              1490.6087
 Red. masses --      1.0885                 1.0885                 1.0816
 Frc consts  --      1.4115                 1.4115                 1.4160
 IR Inten    --      1.1375                 1.1375                 3.3860

                     22                     23                     24
                     A1                     B2                      E
 Frequencies --   1520.8829              3046.5195              3047.3699
 Red. masses --      1.1361                 1.0566                 1.0572
 Frc consts  --      1.5483                 5.7781                 5.7842
 IR Inten    --      0.0000                10.2378                82.6154

                     25                     26                     27
                      E                     A1                     A1
 Frequencies --   3047.3699              3052.6651              3080.4613
 Red. masses --      1.0572                 1.0690                 1.1016
 Frc consts  --      5.7842                 5.8690                 6.1590
 IR Inten    --     82.6155                 0.0000                 0.0000

                     28                     29                     30
                      E                      E                     B2
 Frequencies --   3094.1143              3094.1143              3112.0016
 Red. masses --      1.1084                 1.1084                 1.1078
 Frc consts  --      6.2518                 6.2518                 6.3212
 IR Inten    --     20.6683                20.6683               100.0376

 - Thermochemistry -
 -------------------
 Temperature   298.150 Kelvin.  Pressure   1.00000 Atm.
 Atom     1 has atomic number  6 and mass  12.00000

 Molecular mass:    56.06260 amu.
 Principal axes and moments of inertia in atomic units:
                           1         2         3
     Eigenvalues --   168.52338 168.52338 285.24223
           X            0.99902   0.04424   0.00000
           Y           -0.04424   0.99902   0.00000
           Z            0.00000   0.00000   1.00000
 This molecule is an oblate symmetric top.
 Rotational symmetry number  4.
 Rotational temperatures (Kelvin)      0.51396     0.51396     0.30365
 Rotational constants (GHZ):          10.70914    10.70914     6.32705
 Zero-point vibrational energy     289802.1 (Joules/Mol)
                                   69.26436 (Kcal/Mol)
 Warning -- explicit consideration of   1 degrees of freedom as
           vibrations may cause significant error
 Vibrational temperatures:    267.28   917.96  1084.18  1084.18  1273.46
          (Kelvin)           1311.25  1311.25  1351.63  1386.72  1454.81
                             1685.74  1693.55  1796.97  1796.97  1806.94
                             1820.93  1853.71  1853.71  2134.45  2134.45
                             2144.65  2188.21  4383.26  4384.49  4384.49
                             4392.10  4432.10  4451.74  4451.74  4477.48

 Zero-point correction=                           0.110380 (Hartree/Particle)
 Thermal correction to Energy=                    0.114541
 Thermal correction to Enthalpy=                  0.115485
 Thermal correction to Gibbs Free Energy=         0.085522
 Sum of electronic and zero-point Energies=           -157.165388
 Sum of electronic and thermal Energies=              -157.161226
 Sum of electronic and thermal Enthalpies=            -157.160282
 Sum of electronic and thermal Free Energies=         -157.190246

                     E (Thermal)             CV                S
                      KCal/Mol        Cal/Mol-Kelvin    Cal/Mol-Kelvin
 Total                   71.876             14.702             63.064
 Electronic               0.000              0.000              0.000
 Translational            0.889              2.981             37.993
 Rotational               0.889              2.981             20.854
 Vibrational             70.098              8.741              4.217
 Vibration     1          0.632              1.859              2.270

                           ! Non-Optimized Parameters !
 Normal termination of Gaussian 16 at Tue Jun 14 17:01:00 2022.
