 Gaussian 16, Revision B.01,

 ---------------------------------------
 # b3lyp/gen opt freq CPHF(Grid=OneStep)
 ---------------------------------------

 --------------------------
 cyclobutane, B3LYP/pcseg-2
 --------------------------
 Symbolic Z-matrix:
 Charge =  0 Multiplicity = 1

 SCF Done:  E(RB3LYP) =  -157.275767290     A.U. after    9 cycles
 Optimization completed.
    -- Stationary point found.
 Normal termination of Gaussian 16 at Fri Sep 29 04:04:24 2023.

 ------------------------------------------------------------------
 #N Geom=AllCheck Guess=TCheck SCRF=Check GenChk RB3LYP/ChkBas Freq
 ------------------------------------------------------------------

 Structure from the checkpoint file:  "cyc4.chk"
 --------------------------
 cyclobutane, B3LYP/pcseg-2
 --------------------------
 Charge =  0 Multiplicity = 1

 SCF Done:  E(RB3LYP) =  -157.275767290     A.U. after    1 cycles

  Exact polarizability:  49.501  -0.000  49.501   0.000  -0.000  43.490
 Approx polarizability:  64.856  -0.000  64.856   0.000  -0.000  62.336

                      1                      2                      3
                     A1                     B2                      E
 Frequencies --    185.7651               638.0160               753.5442
 Red. masses --      1.4883                 1.5624                 1.1990
 Frc consts  --      0.0303                 0.3747                 0.4011
 IR Inten    --      0.0000                 2.4776                 0.1866

                      4                      5                      6
                      E                     B2                      E
 Frequencies --    753.5442               885.0996               911.3648
 Red. masses --      1.1990                 1.9688                 2.0974
 Frc consts  --      0.4011                 0.9087                 1.0264
 IR Inten    --      0.1866                 0.0023                 2.3402

                      7                      8                      9
                      E                     B1                     A2
 Frequencies --    911.3648               939.4359               963.8166
 Red. masses --      2.0974                 2.7998                 1.0079
 Frc consts  --      1.0264                 1.4558                 0.5516
 IR Inten    --      2.3402                 0.0000                 0.0000

                     10                     11                     12
                     A1                     B1                     A1
 Frequencies --   1011.1443              1171.6481              1177.0744
 Red. masses --      3.9662                 1.2355                 2.0489
 Frc consts  --      2.3892                 0.9992                 1.6726
 IR Inten    --      0.0000                 0.0000                 0.0000

                     13                     14                     15
                      E                      E                     B1
 Frequencies --   1248.9565              1248.9565              1255.8838
 Red. masses --      1.2710                 1.2710                 1.1096
 Frc consts  --      1.1681                 1.1681                 1.0311
 IR Inten    --      0.4447                 0.4447                 0.0000

                     16                     17                     18
                     A2                      E                      E
 Frequencies --   1265.6091              1288.3888              1288.3888
 Red. masses --      1.3816                 1.4524                 1.4524
 Frc consts  --      1.3039                 1.4204                 1.4204
 IR Inten    --      0.0000                 2.1032                 2.1032

                     19                     20                     21
                      E                      E                     B2
 Frequencies --   1483.5175              1483.5175              1490.6081
 Red. masses --      1.0885                 1.0885                 1.0816
 Frc consts  --      1.4115                 1.4115                 1.4160
 IR Inten    --      1.1376                 1.1376                 3.3854

                     22                     23                     24
                     A1                     B2                      E
 Frequencies --   1520.8820              3046.5191              3047.3709
 Red. masses --      1.1361                 1.0566                 1.0572
 Frc consts  --      1.5483                 5.7781                 5.7842
 IR Inten    --      0.0000                10.2385                82.6164

                     25                     26                     27
                      E                     A1                     A1
 Frequencies --   3047.3709              3052.6663              3080.4608
 Red. masses --      1.0572                 1.0690                 1.1016
 Frc consts  --      5.7842                 5.8690                 6.1590
 IR Inten    --     82.6164                 0.0000                 0.0000

                     28                     29                     30
                      E                      E                     B2
 Frequencies --   3094.1141              3094.1141              3112.0020
 Red. masses --      1.1084                 1.1084                 1.1078
 Frc consts  --      6.2518                 6.2518                 6.3212
 IR Inten    --     20.6622                20.6622               100.0411

 - Thermochemistry -
 -------------------
 Temperature   298.150 Kelvin.  Pressure   1.00000 Atm.
 Atom     1 has atomic number  6 and mass  12.00000

 Molecular mass:    56.06260 amu.
 Principal axes and moments of inertia in atomic units:
                           1         2         3
     Eigenvalues --   168.52336 168.52336 285.24219
           X            0.95682  -0.29069   0.00000
           Y            0.29069   0.95682   0.00000
           Z           -0.00000  -0.00000   1.00000
 This molecule is an oblate symmetric top.
 Rotational symmetry number  4.
 Rotational temperatures (Kelvin)      0.51396     0.51396     0.30365
 Rotational constants (GHZ):          10.70915    10.70915     6.32705
 Zero-point vibrational energy     289802.2 (Joules/Mol)
                                   69.26439 (Kcal/Mol)
 Warning -- explicit consideration of   1 degrees of freedom as
           vibrations may cause significant error
 Vibrational temperatures:    267.27   917.96  1084.18  1084.18  1273.46
          (Kelvin)           1311.25  1311.25  1351.64  1386.72  1454.81
                             1685.74  1693.55  1796.97  1796.97  1806.94
                             1820.93  1853.70  1853.70  2134.45  2134.45
                             2144.65  2188.21  4383.26  4384.49  4384.49
                             4392.11  4432.10  4451.74  4451.74  4477.48

 Zero-point correction=                           0.110380 (Hartree/Particle)
 Thermal correction to Energy=                    0.114541
 Thermal correction to Enthalpy=                  0.115485
 Thermal correction to Gibbs Free Energy=         0.085522
 Sum of electronic and zero-point Energies=           -157.165387
 Sum of electronic and thermal Energies=              -157.161226
 Sum of electronic and thermal Enthalpies=            -157.160282
 Sum of electronic and thermal Free Energies=         -157.190246

                     E (Thermal)             CV                S
                      KCal/Mol        Cal/Mol-Kelvin    Cal/Mol-Kelvin
 Total                   71.876             14.702             63.064
 Electronic               0.000              0.000              0.000
 Translational            0.889              2.981             37.993
 Rotational               0.889              2.981             20.854
 Vibrational             70.098              8.741              4.217
 Vibration     1          0.632              1.859              2.270

                           ! Non-Optimized Parameters !
 Normal termination of Gaussian 16 at Fri Sep 29 04:07:41 2023.
 Gaussian 16:  ES64L-G16RevB.01 20-Dec-2017

 ---------------------------------
 # rohf/gen geom=check guess=check
 ---------------------------------

 -----------------------------
 cyclobutane, ROHF/cc-pVTZ-F12
 -----------------------------
 Structure from the checkpoint file:  "cyc4.chk"
 Charge =  0 Multiplicity = 1

                         Standard orientation:
 ---------------------------------------------------------------------
 Center     Atomic      Atomic             Coordinates (Angstroms)
 Number     Number       Type             X           Y           Z
 ---------------------------------------------------------------------
      1          6           0        0.000000    1.082812    0.122477
      2          6           0       -0.000000   -1.082812    0.122477
      3          6           0       -1.082812    0.000000   -0.122477
      4          6           0        1.082812   -0.000000   -0.122477
      5          1           0        0.000000    1.424137    1.157991
      6          1           0        0.000000    1.955821   -0.528877
      7          1           0       -0.000000   -1.424137    1.157991
      8          1           0       -0.000000   -1.955821   -0.528877
      9          1           0       -1.424137    0.000000   -1.157991
     10          1           0       -1.955821    0.000000    0.528877
     11          1           0        1.424137   -0.000000   -1.157991
     12          1           0        1.955821   -0.000000    0.528877
 ---------------------------------------------------------------------

 SCF Done:  E(ROHF) =  -156.159144677     A.U. after    9 cycles

 The electronic state is 1-A1.
 Alpha  occ. eigenvalues --  -11.21473 -11.21418 -11.21418 -11.21362  -1.11896
 Alpha  occ. eigenvalues --   -0.89146  -0.89146  -0.74760  -0.64723  -0.63903
 Alpha  occ. eigenvalues --   -0.53529  -0.53529  -0.48366  -0.45061  -0.43383
 Alpha  occ. eigenvalues --   -0.43383
 Alpha virt. eigenvalues --    0.05220   0.05220   0.05826   0.05834   0.07778
 Alpha virt. eigenvalues --    0.09374   0.09374   0.09576   0.10045   0.12709
 Alpha virt. eigenvalues --    0.12709   0.13792   0.14419   0.17424   0.17424

 Mulliken charges and spin densities:
               1          2
     1  C   -0.168885   0.000000
     2  C   -0.168885   0.000000
     3  C   -0.168885   0.000000
     4  C   -0.168885   0.000000
     5  H    0.084398   0.000000
     6  H    0.084487   0.000000
     7  H    0.084398   0.000000
     8  H    0.084487   0.000000
     9  H    0.084398   0.000000
    10  H    0.084487   0.000000
    11  H    0.084398   0.000000
    12  H    0.084487   0.000000
 Sum of Mulliken charges =  -0.00000   0.00000

 Dipole moment (field-independent basis, Debye):
    X=              0.0000    Y=              0.0000    Z=             -0.0000  Tot=              0.0000
 Quadrupole moment (field-independent basis, Debye-Ang):
   XX=            -27.4999   YY=            -27.4999   ZZ=            -25.9802
   XY=              0.0000   XZ=             -0.0000   YZ=             -0.0000

 Normal termination of Gaussian 16 at Fri Sep 29 04:08:09 2023.
