 Gaussian 16, Revision B.01,

 ---------------------------------------
 # b3lyp/gen opt freq CPHF(Grid=OneStep)
 ---------------------------------------

 ---------------------------------------
 1,1-dimethylcyclopentane, B3LYP/pcseg-2
 ---------------------------------------
 Symbolic Z-matrix:
 Charge =  0 Multiplicity = 1

 SCF Done:  E(RB3LYP) =  -275.292827763     A.U. after   12 cycles
 SCF Done:  E(RB3LYP) =  -275.293149623     A.U. after    9 cycles
 SCF Done:  E(RB3LYP) =  -275.293151317     A.U. after    6 cycles
 SCF Done:  E(RB3LYP) =  -275.293151417     A.U. after    5 cycles
 Optimization completed.
    -- Stationary point found.
 Normal termination of Gaussian 16 at Thu Dec  7 11:21:28 2023.

 ------------------------------------------------------------------
 #N Geom=AllCheck Guess=TCheck SCRF=Check GenChk RB3LYP/ChkBas Freq
 ------------------------------------------------------------------

 Structure from the checkpoint file:  "cyc5dime11.chk"
 ---------------------------------------
 1,1-dimethylcyclopentane, B3LYP/pcseg-2
 ---------------------------------------
 Charge =  0 Multiplicity = 1

 SCF Done:  E(RB3LYP) =  -275.293151417     A.U. after    1 cycles

  Exact polarizability:  79.092   2.462  88.649  -0.000   0.000  80.434
 Approx polarizability: 113.537   0.463 114.792   0.000   0.000 114.682

                      1                      2                      3
                     A"                     A'                     A"
 Frequencies --     83.1004               175.1745               228.0440
 Red. masses --      1.6029                 2.2609                 1.0214
 Frc consts  --      0.0065                 0.0409                 0.0313
 IR Inten    --      0.0054                 0.0011                 0.0116

                      4                      5                      6
                     A"                     A"                     A'
 Frequencies --    247.2794               295.1710               344.4099
 Red. masses --      1.2245                 1.6433                 2.2256
 Frc consts  --      0.0441                 0.0844                 0.1555
 IR Inten    --      0.0005                 0.0053                 0.0066

                      7                      8                      9
                     A"                     A'                     A'
 Frequencies --    392.5594               407.7451               561.6226
 Red. masses --      2.1119                 1.9807                 3.0445
 Frc consts  --      0.1918                 0.1940                 0.5658
 IR Inten    --      0.0008                 0.1127                 0.4444

                     10                     11                     12
                     A"                     A'                     A"
 Frequencies --    643.8935               714.6816               805.9949
 Red. masses --      2.7426                 1.6795                 1.6426
 Frc consts  --      0.6699                 0.5054                 0.6287
 IR Inten    --      0.0524                 1.0234                 0.0166

                     13                     14                     15
                     A'                     A'                     A"
 Frequencies --    811.7983               885.6945               903.3417
 Red. masses --      1.8210                 2.8185                 1.9010
 Frc consts  --      0.7071                 1.3027                 0.9140
 IR Inten    --      0.3929                 0.3758                 0.2347

                     16                     17                     18
                     A'                     A'                     A'
 Frequencies --    921.8874               950.3980               964.9356
 Red. masses --      2.0891                 1.3902                 1.8829
 Frc consts  --      1.0461                 0.7399                 1.0330
 IR Inten    --      0.8588                 0.3354                 0.3195

                     19                     20                     21
                     A"                     A"                     A'
 Frequencies --    979.4735              1002.2344              1045.0609
 Red. masses --      1.5959                 1.4695                 2.3685
 Frc consts  --      0.9021                 0.8697                 1.5241
 IR Inten    --      0.9098                 1.1759                 0.0097

                     22                     23                     24
                     A"                     A'                     A'
 Frequencies --   1079.4192              1080.3366              1183.1885
 Red. masses --      1.5377                 1.3268                 1.3950
 Frc consts  --      1.0556                 0.9124                 1.1507
 IR Inten    --      0.1206                 0.8942                 0.9550

                     25                     26                     27
                     A"                     A"                     A'
 Frequencies --   1193.6853              1247.8323              1250.9048
 Red. masses --      1.8395                 1.4191                 1.8698
 Frc consts  --      1.5443                 1.3019                 1.7239
 IR Inten    --      2.1928                 0.9166                 2.5506

                     28                     29                     30
                     A"                     A'                     A"
 Frequencies --   1270.8569              1280.3355              1315.0905
 Red. masses --      1.4107                 1.8462                 1.2692
 Frc consts  --      1.3424                 1.7831                 1.2933
 IR Inten    --      0.2603                 1.7898                 0.2891

                     31                     32                     33
                     A'                     A"                     A'
 Frequencies --   1336.1386              1340.2607              1359.0121
 Red. masses --      1.3827                 1.4181                 1.5655
 Frc consts  --      1.4544                 1.5008                 1.7036
 IR Inten    --      0.7222                 0.0028                 1.4713

                     34                     35                     36
                     A'                     A'                     A"
 Frequencies --   1400.6178              1421.2853              1485.0754
 Red. masses --      1.2491                 1.2268                 1.0495
 Frc consts  --      1.4437                 1.4601                 1.3637
 IR Inten    --      8.6060                 3.6985                 0.0858

                     37                     38                     39
                     A'                     A"                     A"
 Frequencies --   1485.0901              1487.8922              1498.1697
 Red. masses --      1.0624                 1.0787                 1.0741
 Frc consts  --      1.3805                 1.4070                 1.4204
 IR Inten    --      0.1563                 0.5545                 9.9693

                     40                     41                     42
                     A'                     A'                     A"
 Frequencies --   1503.2619              1507.5434              1510.5536
 Red. masses --      1.0660                 1.0652                 1.0590
 Frc consts  --      1.4193                 1.4263                 1.4237
 IR Inten    --      6.5966                 4.7348                 4.5423

                     43                     44                     45
                     A'                     A'                     A"
 Frequencies --   1522.5904              3015.7618              3019.6770
 Red. masses --      1.1009                 1.0361                 1.0638
 Frc consts  --      1.5037                 5.5517                 5.7152
 IR Inten    --      2.7641                17.9295                28.6652

                     46                     47                     48
                     A'                     A'                     A"
 Frequencies --   3021.3649              3028.9800              3041.6760
 Red. masses --      1.0441                 1.0530                 1.0655
 Frc consts  --      5.6158                 5.6920                 5.8082
 IR Inten    --     49.8192                39.0017                15.6351

                     49                     50                     51
                     A'                     A"                     A'
 Frequencies --   3052.4241              3059.7251              3067.4975
 Red. masses --      1.0715                 1.0943                 1.0900
 Frc consts  --      5.8819                 6.0361                 6.0428
 IR Inten    --     34.2260                44.8001                12.6544

                     52                     53                     54
                     A"                     A"                     A'
 Frequencies --   3073.8998              3075.4793              3081.0707
 Red. masses --      1.1047                 1.1025                 1.1015
 Frc consts  --      6.1501                 6.1440                 6.1611
 IR Inten    --      3.3630                 4.3500                23.7827

                     55                     56                     57
                     A"                     A'                     A'
 Frequencies --   3082.4537              3090.2880              3095.6210
 Red. masses --      1.1010                 1.1012                 1.1041
 Frc consts  --      6.1637                 6.1958                 6.2339
 IR Inten    --     66.0406                63.2822                72.1594

 - Thermochemistry -
 -------------------
 Temperature   298.150 Kelvin.  Pressure   1.00000 Atm.
 Atom     1 has atomic number  6 and mass  12.00000

 Molecular mass:    98.10955 amu.
 Principal axes and moments of inertia in atomic units:
                           1         2         3
     Eigenvalues --   465.68272 831.69339 867.45247
           X            0.26341   0.00000   0.96468
           Y            0.96468   0.00000  -0.26341
           Z            0.00000   1.00000   0.00000
 This molecule is an asymmetric top.
 Rotational symmetry number  1.
 Warning -- assumption of classical behavior for rotation
           may cause significant error
 Rotational temperatures (Kelvin)      0.18599     0.10414     0.09985
 Rotational constants (GHZ):           3.87547     2.16996     2.08051
 Zero-point vibrational energy     513972.9 (Joules/Mol)
                                  122.84247 (Kcal/Mol)
 Warning -- explicit consideration of   9 degrees of freedom as
           vibrations may cause significant error
 Vibrational temperatures:    119.56   252.04   328.10   355.78   424.69
          (Kelvin)            495.53   564.81   586.65   808.05   926.42
                             1028.27  1159.65  1168.00  1274.32  1299.71
                             1326.39  1367.41  1388.33  1409.24  1441.99
                             1503.61  1553.04  1554.36  1702.34  1717.45
                             1795.35  1799.77  1828.48  1842.12  1892.12
                             1922.41  1928.34  1955.32  2015.18  2044.91
                             2136.69  2136.71  2140.75  2155.53  2162.86
                             2169.02  2173.35  2190.67  4339.01  4344.64
                             4347.07  4358.03  4376.29  4391.76  4402.26
                             4413.44  4422.66  4424.93  4432.97  4434.96
                             4446.24  4453.91

 Zero-point correction=                           0.195762 (Hartree/Particle)
 Thermal correction to Energy=                    0.203549
 Thermal correction to Enthalpy=                  0.204493
 Thermal correction to Gibbs Free Energy=         0.164372
 Sum of electronic and zero-point Energies=           -275.097389
 Sum of electronic and thermal Energies=              -275.089602
 Sum of electronic and thermal Enthalpies=            -275.088658
 Sum of electronic and thermal Free Energies=         -275.128779

                     E (Thermal)             CV                S
                      KCal/Mol        Cal/Mol-Kelvin    Cal/Mol-Kelvin
 Total                  127.729             30.162             84.442
 Electronic               0.000              0.000              0.000
 Translational            0.889              2.981             39.661
 Rotational               0.889              2.981             27.310
 Vibrational            125.952             24.200             17.471
 Vibration     1          0.600              1.961              3.816
 Vibration     2          0.627              1.873              2.379
 Vibration     3          0.651              1.798              1.894
 Vibration     4          0.661              1.767              1.750
 Vibration     5          0.689              1.683              1.444
 Vibration     6          0.723              1.587              1.192
 Vibration     7          0.760              1.486              0.990
 Vibration     8          0.772              1.453              0.935
 Vibration     9          0.917              1.114              0.521

 Optimization completed.
    -- Stationary point found.
 Normal termination of Gaussian 16 at Thu Dec  7 11:44:08 2023.
 Gaussian 16:  ES64L-G16RevB.01 20-Dec-2017

 ---------------------------------
 # rohf/gen geom=check guess=check
 ---------------------------------

 ------------------------------------------
 1,1-dimethylcyclopentane, ROHF/cc-pVTZ-F12
 ------------------------------------------
 Structure from the checkpoint file:  "cyc5dime11.chk"
 Charge =  0 Multiplicity = 1

                         Standard orientation:
 ---------------------------------------------------------------------
 Center     Atomic      Atomic             Coordinates (Angstroms)
 Number     Number       Type             X           Y           Z
 ---------------------------------------------------------------------
      1          6           0       -0.236294    2.122769    0.000000
      2          6           0        0.163353    0.646203    0.000000
      3          6           0        1.696349    0.530286    0.000000
      4          6           0       -0.440044   -0.126043    1.194436
      5          6           0       -0.440044   -0.126043   -1.194436
      6          6           0       -0.440044   -1.610911    0.777475
      7          6           0       -0.440044   -1.610911   -0.777475
      8          1           0        0.153640    2.637584    0.880801
      9          1           0       -1.322134    2.235945    0.000000
     10          1           0        0.153640    2.637584   -0.880801
     11          1           0        2.121466    1.013363    0.882069
     12          1           0        2.121466    1.013363   -0.882069
     13          1           0        2.029215   -0.508319    0.000000
     14          1           0        0.103327    0.053548    2.123851
     15          1           0       -1.465992    0.216162    1.353084
     16          1           0       -1.465992    0.216162   -1.353084
     17          1           0        0.103327    0.053548   -2.123851
     18          1           0       -1.300535   -2.139830    1.186579
     19          1           0        0.444861   -2.120693    1.159326
     20          1           0        0.444861   -2.120693   -1.159326
     21          1           0       -1.300535   -2.139830   -1.186579
 ---------------------------------------------------------------------

 SCF Done:  E(ROHF) =  -273.339680974     A.U. after   10 cycles

 The electronic state is 1-A'.
 Alpha  occ. eigenvalues --  -11.22395 -11.21049 -11.20995 -11.20773 -11.20772
 Alpha  occ. eigenvalues --  -11.20552 -11.20504  -1.12941  -1.01764  -0.95699
 Alpha  occ. eigenvalues --   -0.92712  -0.88085  -0.77275  -0.72325  -0.64123
 Alpha  occ. eigenvalues --   -0.63219  -0.59846  -0.58369  -0.55422  -0.54682
 Alpha  occ. eigenvalues --   -0.52260  -0.50618  -0.47124  -0.46544  -0.44917
 Alpha  occ. eigenvalues --   -0.44863  -0.44252  -0.42985
 Alpha virt. eigenvalues --    0.04372   0.05008   0.05096   0.05149   0.06670
 Alpha virt. eigenvalues --    0.06730   0.07969   0.08043   0.08540   0.10457
 Alpha virt. eigenvalues --    0.10865   0.11328   0.11328   0.11441   0.11624

 Mulliken charges and spin densities:
               1          2
     1  C   -0.354713   0.000000
     2  C    0.380227   0.000000
     3  C   -0.436023   0.000000
     4  C   -0.192503   0.000000
     5  C   -0.192503   0.000000
     6  C   -0.213474   0.000000
     7  C   -0.213474   0.000000
     8  H    0.102826   0.000000
     9  H    0.098637   0.000000
    10  H    0.102826   0.000000
    11  H    0.104430   0.000000
    12  H    0.104430   0.000000
    13  H    0.099620   0.000000
    14  H    0.060475   0.000000
    15  H    0.079761   0.000000
    16  H    0.079761   0.000000
    17  H    0.060475   0.000000
    18  H    0.082301   0.000000
    19  H    0.082310   0.000000
    20  H    0.082310   0.000000
    21  H    0.082301   0.000000
 Sum of Mulliken charges =  -0.00000   0.00000

 Dipole moment (field-independent basis, Debye):
    X=             -0.0297    Y=             -0.0451    Z=              0.0000  Tot=              0.0540
 Quadrupole moment (field-independent basis, Debye-Ang):
   XX=            -46.8563   YY=            -48.1268   ZZ=            -47.4860
   XY=              0.0400   XZ=             -0.0000   YZ=             -0.0000

 Normal termination of Gaussian 16 at Thu Dec  7 11:50:18 2023.
