 Gaussian 16, Revision B.01,
 Gaussian 16:  ES64L-G16RevB.01 20-Dec-2017

 --------------------
 # b3lyp/gen opt freq
 --------------------

 ---------------------------------
 methylcyclopentane, B3LYP/pcseg-2
 ---------------------------------
 Symbolic Z-matrix:
 Charge =  0 Multiplicity = 1

 SCF Done:  E(RB3LYP) =  -235.965184290     A.U. after   11 cycles
 SCF Done:  E(RB3LYP) =  -235.965207489     A.U. after    7 cycles
 SCF Done:  E(RB3LYP) =  -235.965207906     A.U. after    5 cycles
 Optimization completed.
    -- Stationary point found.
 Normal termination of Gaussian 16 at Fri Jun 17 17:50:39 2022.

 ------------------------------------------------------------------
 #N Geom=AllCheck Guess=TCheck SCRF=Check GenChk RB3LYP/ChkBas Freq
 ------------------------------------------------------------------

 Structure from the checkpoint file:  "/wrk/irikura/Gau-10057.chk"
 ---------------------------------
 methylcyclopentane, B3LYP/pcseg-2
 ---------------------------------
 Charge =  0 Multiplicity = 1

                         Standard orientation:
 ---------------------------------------------------------------------
 Center     Atomic      Atomic             Coordinates (Angstroms)
 Number     Number       Type             X           Y           Z
 ---------------------------------------------------------------------
      1          6           0        0.213925    2.216708    0.000000
      2          6           0        0.450734    0.711224    0.000000
      3          6           0       -0.158426   -0.036002    1.195913
      4          6           0       -0.158426   -0.036002   -1.195913
      5          6           0       -0.158426   -1.520284   -0.778285
      6          6           0       -0.158426   -1.520284    0.778285
      7          1           0        0.651967    2.689767   -0.880809
      8          1           0        0.651967    2.689767    0.880809
      9          1           0       -0.855653    2.440388    0.000000
     10          1           0        1.531908    0.527459    0.000000
     11          1           0        0.380763    0.142197    2.127331
     12          1           0        0.380763    0.142197   -2.127331
     13          1           0       -1.183704    0.315558    1.346604
     14          1           0       -1.183704    0.315558   -1.346604
     15          1           0        0.733669   -2.021357   -1.156118
     16          1           0        0.733669   -2.021357    1.156118
     17          1           0       -1.013684   -2.056169   -1.189371
     18          1           0       -1.013684   -2.056169    1.189371
 ---------------------------------------------------------------------

 SCF Done:  E(RB3LYP) =  -235.965207906     A.U. after    1 cycles

 The electronic state is 1-A'.
 Alpha  occ. eigenvalues --  -10.16709 -10.16016 -10.15996 -10.15853 -10.15853
 Alpha  occ. eigenvalues --  -10.15591  -0.83571  -0.74144  -0.70540  -0.65217
 Alpha  occ. eigenvalues --   -0.56284  -0.55634  -0.48259  -0.45929  -0.43007
 Alpha  occ. eigenvalues --   -0.41924  -0.40062  -0.37369  -0.33731  -0.33484
 Alpha  occ. eigenvalues --   -0.33106  -0.31631  -0.31619  -0.31273
 Alpha virt. eigenvalues --    0.01221   0.03107   0.03194   0.04505   0.07101
 Alpha virt. eigenvalues --    0.07363   0.07458   0.07959   0.08456   0.10620
 Alpha virt. eigenvalues --    0.11611   0.12947   0.13304   0.14388   0.15557

 Mulliken charges:
               1
     1  C   -0.063721
     2  C    0.000569
     3  C   -0.077633
     4  C   -0.077633
     5  C   -0.060938
     6  C   -0.060938
     7  H    0.027177
     8  H    0.027177
     9  H    0.016712
    10  H    0.015655
    11  H    0.033529
    12  H    0.033529
    13  H    0.029112
    14  H    0.029112
    15  H    0.033577
    16  H    0.033577
    17  H    0.030569
    18  H    0.030569
 Sum of Mulliken charges =  -0.00000

 Dipole moment (field-independent basis, Debye):
    X=              0.0988    Y=             -0.0204    Z=              0.0000  Tot=              0.1008
 Quadrupole moment (field-independent basis, Debye-Ang):
   XX=            -39.6760   YY=            -41.5672   ZZ=            -40.9543
   XY=              0.0743   XZ=              0.0000   YZ=              0.0000

  Exact polarizability:  63.091   1.533  79.029   0.000  -0.000  71.232
 Approx polarizability:  96.167  -0.165  97.711   0.000  -0.000  97.125

                      1                      2                      3
                     A"                     A'                     A"
 Frequencies --     30.4723               173.3109               232.8606
 Red. masses --      1.5536                 2.0959                 1.0333
 Frc consts  --      0.0008                 0.0371                 0.0330
 IR Inten    --      0.0263                 0.0048                 0.0006

                      4                      5                      6
                     A"                     A'                     A'
 Frequencies --    303.2559               425.5517               531.0476
 Red. masses --      2.2994                 1.8286                 2.8940
 Frc consts  --      0.1246                 0.1951                 0.4809
 IR Inten    --      0.0225                 0.1542                 0.4237

                      7                      8                      9
                     A"                     A'                     A"
 Frequencies --    633.4561               757.6947               815.6073
 Red. masses --      2.5735                 1.2444                 1.6321
 Frc consts  --      0.6084                 0.4209                 0.6397
 IR Inten    --      0.1818                 0.5414                 0.1385

                     10                     11                     12
                     A'                     A'                     A"
 Frequencies --    850.0143               886.7016               913.1739
 Red. masses --      2.5495                 2.5422                 1.9280
 Frc consts  --      1.0853                 1.1776                 0.9473
 IR Inten    --      0.7543                 1.0754                 0.4779

                     13                     14                     15
                     A'                     A"                     A"
 Frequencies --    929.6272               982.7879               994.1959
 Red. masses --      1.5273                 1.2697                 1.7116
 Frc consts  --      0.7776                 0.7226                 0.9968
 IR Inten    --      0.0012                 0.3086                 2.2834

                     16                     17                     18
                     A'                     A'                     A'
 Frequencies --   1016.6738              1044.2207              1098.8899
 Red. masses --      1.7522                 1.6852                 2.1812
 Frc consts  --      1.0671                 1.0826                 1.5518
 IR Inten    --      0.5759                 0.3256                 0.1060

                     19                     20                     21
                     A"                     A"                     A'
 Frequencies --   1155.1372              1205.7626              1214.8569
 Red. masses --      2.0931                 1.4767                 1.3645
 Frc consts  --      1.6456                 1.2649                 1.1865
 IR Inten    --      1.1271                 0.3337                 0.3331

                     22                     23                     24
                     A'                     A"                     A"
 Frequencies --   1246.0628              1265.8515              1306.0870
 Red. masses --      1.5664                 1.2086                 1.2929
 Frc consts  --      1.4329                 1.1411                 1.2995
 IR Inten    --      0.4936                 0.3424                 0.0011

                     25                     26                     27
                     A'                     A'                     A"
 Frequencies --   1320.5273              1330.5649              1336.1261
 Red. masses --      1.1854                 1.3384                 1.2819
 Frc consts  --      1.2179                 1.3960                 1.3484
 IR Inten    --      1.0030                 0.2858                 0.2401

                     28                     29                     30
                     A"                     A'                     A'
 Frequencies --   1350.2709              1388.0404              1411.5748
 Red. masses --      1.4020                 1.5723                 1.2394
 Frc consts  --      1.5060                 1.7848                 1.4550
 IR Inten    --      0.6333                 1.9706                 3.0669

                     31                     32                     33
                     A"                     A'                     A"
 Frequencies --   1487.2567              1495.3041              1496.1163
 Red. masses --      1.0805                 1.0730                 1.0524
 Frc consts  --      1.4082                 1.4136                 1.3879
 IR Inten    --      0.0401                 1.6048                 3.9947

                     34                     35                     36
                     A"                     A'                     A'
 Frequencies --   1497.3466              1501.9800              1520.4855
 Red. masses --      1.0864                 1.0549                 1.1032
 Frc consts  --      1.4351                 1.4021                 1.5027
 IR Inten    --      2.7067                10.9010                 1.7033

                     37                     38                     39
                     A'                     A"                     A'
 Frequencies --   2982.9832              3011.0888              3015.9091
 Red. masses --      1.0818                 1.0676                 1.0501
 Frc consts  --      5.6717                 5.7031                 5.6275
 IR Inten    --      9.6227                21.6321                10.8267

                     40                     41                     42
                     A'                     A"                     A'
 Frequencies --   3021.8462              3037.4083              3049.9327
 Red. masses --      1.0523                 1.0648                 1.0667
 Frc consts  --      5.6613                 5.7881                 5.8461
 IR Inten    --     80.0279                14.5545                48.2516

                     43                     44                     45
                     A"                     A'                     A"
 Frequencies --   3062.7783              3070.7068              3074.7272
 Red. masses --      1.0929                 1.0926                 1.1033
 Frc consts  --      6.0404                 6.0702                 6.1454
 IR Inten    --     52.3841                 7.8234                13.5369

                     46                     47                     48
                     A'                     A"                     A'
 Frequencies --   3078.8615              3082.1793              3093.7550
 Red. masses --      1.0996                 1.1014                 1.1052
 Frc consts  --      6.1416                 6.1648                 6.2323
 IR Inten    --     33.6217                35.0066                96.7660

 - Thermochemistry -
 -------------------
 Temperature   298.150 Kelvin.  Pressure   1.00000 Atm.
 Atom     1 has atomic number  6 and mass  12.00000

 Molecular mass:    84.09390 amu.
 Principal axes and moments of inertia in atomic units:
                           1         2         3
     Eigenvalues --   288.86376 617.11882 819.26709
           X            0.12396   0.00000   0.99229
           Y            0.99229   0.00000  -0.12396
           Z           -0.00000   1.00000  -0.00000
 This molecule is an asymmetric top.
 Rotational symmetry number  1.
 Rotational temperatures (Kelvin)      0.29984     0.14035     0.10572
 Rotational constants (GHZ):           6.24772     2.92446     2.20287
 Zero-point vibrational energy     441009.7 (Joules/Mol)
                                  105.40386 (Kcal/Mol)
 Warning -- explicit consideration of   6 degrees of freedom as
           vibrations may cause significant error
 Vibrational temperatures:     43.84   249.36   335.03   436.32   612.27
          (Kelvin)            764.06   911.40  1090.15  1173.48  1222.98
                             1275.77  1313.85  1337.53  1414.01  1430.43
                             1462.77  1502.40  1581.06  1661.98  1734.82
                             1747.91  1792.81  1821.28  1879.17  1899.94
                             1914.39  1922.39  1942.74  1997.08  2030.94
                             2139.83  2151.41  2152.58  2154.35  2161.01
                             2187.64  4291.85  4332.29  4339.22  4347.76
                             4370.15  4388.17  4406.65  4418.06  4423.85
                             4429.80  4434.57  4451.22

 Zero-point correction=                           0.167972 (Hartree/Particle)
 Thermal correction to Energy=                    0.174570
 Thermal correction to Enthalpy=                  0.175514
 Thermal correction to Gibbs Free Energy=         0.137099
 Sum of electronic and zero-point Energies=           -235.797236
 Sum of electronic and thermal Energies=              -235.790638
 Sum of electronic and thermal Enthalpies=            -235.789694
 Sum of electronic and thermal Free Energies=         -235.828109

                     E (Thermal)             CV                S
                      KCal/Mol        Cal/Mol-Kelvin    Cal/Mol-Kelvin
 Total                  109.544             24.282             80.852
 Electronic               0.000              0.000              0.000
 Translational            0.889              2.981             39.202
 Rotational               0.889              2.981             26.482
 Vibrational            107.767             18.321             15.168
 Vibration     1          0.594              1.984              5.798
 Vibration     2          0.627              1.875              2.399
 Vibration     3          0.654              1.791              1.857
 Vibration     4          0.695              1.668              1.399
 Vibration     5          0.787              1.415              0.873
 Vibration     6          0.886              1.181              0.585

 Optimization completed.
    -- Stationary point found.
 Normal termination of Gaussian 16 at Fri Jun 17 17:57:21 2022.
