 Gaussian 16, Revision B.01,
 Gaussian 16:  ES64L-G16RevB.01 20-Dec-2017

 ---------------------------------
 # b3lyp/gen opt(calcfc,cart) freq
 ---------------------------------

 ---------------------------
 cyclopentane, B3LYP/pcseg-2
 ---------------------------
 Symbolic Z-matrix:
 Charge =  0 Multiplicity = 1

 SCF Done:  E(RB3LYP) =  -196.634701819     A.U. after   10 cycles
 SCF Done:  E(RB3LYP) =  -196.634693778     A.U. after    8 cycles
 SCF Done:  E(RB3LYP) =  -196.634701702     A.U. after    5 cycles
 SCF Done:  E(RB3LYP) =  -196.634701783     A.U. after    5 cycles
 SCF Done:  E(RB3LYP) =  -196.634701692     A.U. after    5 cycles
 SCF Done:  E(RB3LYP) =  -196.634701785     A.U. after    5 cycles
 Optimization completed.
    -- Stationary point found.
 Normal termination of Gaussian 16 at Thu Jun 23 11:25:56 2022.

 ------------------------------------------------------------------
 #N Geom=AllCheck Guess=TCheck SCRF=Check GenChk RB3LYP/ChkBas Freq
 ------------------------------------------------------------------

 Structure from the checkpoint file:  "/wrk/irikura/Gau-12415.chk"
 ---------------------------
 cyclopentane, B3LYP/pcseg-2
 ---------------------------
 Charge =  0 Multiplicity = 1

                         Standard orientation:
 ---------------------------------------------------------------------
 Center     Atomic      Atomic             Coordinates (Angstroms)
 Number     Number       Type             X           Y           Z
 ---------------------------------------------------------------------
      1          6           0        0.933149   -0.874080   -0.174734
      2          6           0       -1.261864    0.104580   -0.221483
      3          6           0       -0.295127    1.261142    0.099216
      4          6           0        1.131996    0.645919    0.039825
      5          6           0       -0.514623   -1.145512    0.256992
      6          1           0       -1.426454    0.038976   -1.300326
      7          1           0       -2.238781    0.229261    0.246484
      8          1           0       -0.496210    1.645601    1.100479
      9          1           0       -0.414589    2.098756   -0.587741
     10          1           0        1.668190    0.837515    0.969762
     11          1           0        1.729791    1.083926   -0.759313
     12          1           0        1.660809   -1.473691    0.372398
     13          1           0        1.047138   -1.121170   -1.232812
     14          1           0       -0.574511   -1.219482    1.346726
     15          1           0       -0.916574   -2.071990   -0.154558
 ---------------------------------------------------------------------

 SCF Done:  E(RB3LYP) =  -196.634701785     A.U. after    1 cycles

 The electronic state is 1-A.
 Alpha  occ. eigenvalues --  -10.16036 -10.16023 -10.16021 -10.15998 -10.15997
 Alpha  occ. eigenvalues --   -0.82914  -0.70492  -0.70451  -0.56768  -0.56047
 Alpha  occ. eigenvalues --   -0.47972  -0.47637  -0.41412  -0.41299  -0.33803
 Alpha  occ. eigenvalues --   -0.33754  -0.33499  -0.33203  -0.32365  -0.31488
 Alpha virt. eigenvalues --    0.01156   0.03199   0.04545   0.04602   0.07379
 Alpha virt. eigenvalues --    0.07658   0.08442   0.08618   0.08918   0.13669
 Alpha virt. eigenvalues --    0.14034   0.15063   0.15573   0.17486   0.18727

 Mulliken charges:
               1
     1  C   -0.061747
     2  C   -0.061273
     3  C   -0.064747
     4  C   -0.069752
     5  C   -0.061219
     6  H    0.027530
     7  H    0.035973
     8  H    0.033159
     9  H    0.031584
    10  H    0.031693
    11  H    0.031020
    12  H    0.033688
    13  H    0.031682
    14  H    0.024414
    15  H    0.037997
 Sum of Mulliken charges =  -0.00000

 Dipole moment (field-independent basis, Debye):
    X=             -0.0138    Y=             -0.0168    Z=              0.0006  Tot=              0.0218
 Quadrupole moment (field-independent basis, Debye-Ang):
   XX=            -34.2771   YY=            -34.2776   ZZ=            -32.9545
   XY=             -0.0060   XZ=             -0.0010   YZ=             -0.0417

  Exact polarizability:  61.472   0.003  61.455   0.001   0.136  53.175
 Approx polarizability:  80.548   0.011  80.529   0.002   0.179  78.997

 ******    1 imaginary frequencies (negative Signs) ******

                      1                      2                      3
                      A                      A                      A
 Frequencies --    -10.1227               258.9193               553.5167
 Red. masses --      1.5623                 1.5928                 1.6876
 Frc consts  --      0.0001                 0.0629                 0.3046
 IR Inten    --      0.0152                 0.0110                 1.0723

                      4                      5                      6
                      A                      A                      A
 Frequencies --    622.2816               769.8823               822.8080
 Red. masses --      2.4734                 1.1732                 1.6432
 Frc consts  --      0.5643                 0.4097                 0.6555
 IR Inten    --      0.0551                 0.6103                 0.0854

                      7                      8                      9
                      A                      A                      A
 Frequencies --    867.7743               882.0507               899.7663
 Red. masses --      2.0858                 3.4735                 2.1737
 Frc consts  --      0.9254                 1.5922                 1.0368
 IR Inten    --      0.7462                 0.5491                 2.1814

                     10                     11                     12
                      A                      A                      A
 Frequencies --    906.5384               973.4735              1002.4369
 Red. masses --      2.4693                 1.2289                 1.2437
 Frc consts  --      1.1956                 0.6861                 0.7364
 IR Inten    --      1.9133                 0.9674                 0.4934

                     13                     14                     15
                      A                      A                      A
 Frequencies --   1037.0444              1048.7331              1178.4838
 Red. masses --      1.8357                 2.3481                 1.4220
 Frc consts  --      1.1632                 1.5216                 1.1636
 IR Inten    --      0.0023                 0.0199                 0.0056

                     16                     17                     18
                      A                      A                      A
 Frequencies --   1209.9891              1223.3097              1239.9248
 Red. masses --      1.4611                 1.3518                 1.4800
 Frc consts  --      1.2603                 1.1919                 1.3406
 IR Inten    --      0.2623                 0.2937                 0.2767

                     19                     20                     21
                      A                      A                      A
 Frequencies --   1284.7622              1315.8308              1321.4173
 Red. masses --      1.1206                 1.3391                 1.1775
 Frc consts  --      1.0898                 1.3660                 1.2114
 IR Inten    --      0.8428                 0.0162                 0.6365

                     22                     23                     24
                      A                      A                      A
 Frequencies --   1338.8586              1350.9617              1352.8451
 Red. masses --      1.2021                 1.4840                 1.4760
 Frc consts  --      1.2696                 1.5958                 1.5916
 IR Inten    --      0.0433                 0.0385                 0.0552

                     25                     26                     27
                      A                      A                      A
 Frequencies --   1489.3445              1494.2478              1498.5001
 Red. masses --      1.0789                 1.0879                 1.0888
 Frc consts  --      1.4101                 1.4311                 1.4405
 IR Inten    --      0.2247                 3.9290                 3.1695

                     28                     29                     30
                      A                      A                      A
 Frequencies --   1499.7131              1523.6534              3016.1832
 Red. masses --      1.0868                 1.1049                 1.0718
 Frc consts  --      1.4402                 1.5113                 5.7450
 IR Inten    --      4.2399                 0.1795                18.1947

                     31                     32                     33
                      A                      A                      A
 Frequencies --   3023.6629              3029.6675              3036.0610
 Red. masses --      1.0667                 1.0634                 1.0643
 Frc consts  --      5.7459                 5.7512                 5.7800
 IR Inten    --     32.5273                33.5355                18.1298

                     34                     35                     36
                      A                      A                      A
 Frequencies --   3050.0414              3064.7811              3075.0596
 Red. masses --      1.0647                 1.0950                 1.0889
 Frc consts  --      5.8358                 6.0597                 6.0668
 IR Inten    --     58.1257                41.0337                16.8634

                     37                     38                     39
                      A                      A                      A
 Frequencies --   3078.4300              3080.0408              3095.5252
 Red. masses --      1.1018                 1.1019                 1.1057
 Frc consts  --      6.1518                 6.1591                 6.2426
 IR Inten    --     26.8192                22.1802               101.2684

 - Thermochemistry -
 -------------------
 Temperature   298.150 Kelvin.  Pressure   1.00000 Atm.
 Atom     1 has atomic number  6 and mass  12.00000

 Molecular mass:    70.07825 amu.
 Principal axes and moments of inertia in atomic units:
                           1         2         3
     Eigenvalues --   277.84067 277.95964 482.44435
           X            0.98752  -0.15751  -0.00000
           Y            0.15751   0.98752   0.00145
           Z           -0.00023  -0.00144   1.00000
 This molecule is an asymmetric top.
 Rotational symmetry number  1.
 Rotational temperatures (Kelvin)      0.31174     0.31161     0.17953
 Rotational constants (GHZ):           6.49560     6.49282     3.74083
    1 imaginary frequencies ignored.
 Zero-point vibrational energy     367950.5 (Joules/Mol)
                                   87.94228 (Kcal/Mol)
 Warning -- explicit consideration of   2 degrees of freedom as
           vibrations may cause significant error
 Vibrational temperatures:    372.53   796.39   895.32  1107.69  1183.84
          (Kelvin)           1248.53  1269.07  1294.56  1304.31  1400.61
                             1442.28  1492.08  1508.89  1695.58  1740.90
                             1760.07  1783.98  1848.49  1893.19  1901.22
                             1926.32  1943.73  1946.44  2142.83  2149.89
                             2156.01  2157.75  2192.20  4339.61  4350.38
                             4359.02  4368.21  4388.33  4409.54  4424.32
                             4429.17  4431.49  4453.77

 Zero-point correction=                           0.140145 (Hartree/Particle)
 Thermal correction to Energy=                    0.144461
 Thermal correction to Enthalpy=                  0.145405
 Thermal correction to Gibbs Free Energy=         0.113036
 Sum of electronic and zero-point Energies=           -196.494557
 Sum of electronic and thermal Energies=              -196.490241
 Sum of electronic and thermal Enthalpies=            -196.489297
 Sum of electronic and thermal Free Energies=         -196.521666

                     E (Thermal)             CV                S
                      KCal/Mol        Cal/Mol-Kelvin    Cal/Mol-Kelvin
 Total                   90.650             16.627             68.126
 Electronic               0.000              0.000              0.000
 Translational            0.889              2.981             38.658
 Rotational               0.889              2.981             25.125
 Vibrational             88.873             10.666              4.343
 Vibration     1          0.668              1.748              1.669
 Vibration     2          0.909              1.132              0.537

 Normal termination of Gaussian 16 at Thu Jun 23 11:31:33 2022.
