 Gaussian 16, Revision B.01,
 Gaussian 16:  ES64L-G16RevB.01 20-Dec-2017

 ------------------------------------------------
 # b3lyp/gen opt(calcfc,tight) freq int=superfine
 ------------------------------------------------

 ------------------------------------------
 cyclopentane, B3LYP/pcseg-2 superfine grid
 ------------------------------------------
 Symbolic Z-matrix:
 Charge =  0 Multiplicity = 1

 SCF Done:  E(RB3LYP) =  -196.634701278     A.U. after   10 cycles
 SCF Done:  E(RB3LYP) =  -196.634684145     A.U. after    9 cycles
 SCF Done:  E(RB3LYP) =  -196.634700936     A.U. after    9 cycles
 SCF Done:  E(RB3LYP) =  -196.634701132     A.U. after    7 cycles
 SCF Done:  E(RB3LYP) =  -196.634701183     A.U. after    5 cycles
 SCF Done:  E(RB3LYP) =  -196.634701385     A.U. after    6 cycles
 SCF Done:  E(RB3LYP) =  -196.634701146     A.U. after    6 cycles
 SCF Done:  E(RB3LYP) =  -196.634701350     A.U. after    6 cycles
 SCF Done:  E(RB3LYP) =  -196.634701438     A.U. after    7 cycles
 SCF Done:  E(RB3LYP) =  -196.634701753     A.U. after    6 cycles
 SCF Done:  E(RB3LYP) =  -196.634701559     A.U. after    6 cycles
 SCF Done:  E(RB3LYP) =  -196.634701616     A.U. after    5 cycles
 SCF Done:  E(RB3LYP) =  -196.634701594     A.U. after    7 cycles
 SCF Done:  E(RB3LYP) =  -196.634701592     A.U. after    5 cycles
 SCF Done:  E(RB3LYP) =  -196.634701457     A.U. after    7 cycles
 SCF Done:  E(RB3LYP) =  -196.634701436     A.U. after    5 cycles
 SCF Done:  E(RB3LYP) =  -196.634701446     A.U. after    5 cycles
 SCF Done:  E(RB3LYP) =  -196.634701420     A.U. after    4 cycles
 SCF Done:  E(RB3LYP) =  -196.634701445     A.U. after    4 cycles
 Optimization completed.
    -- Stationary point found.
 Normal termination of Gaussian 16 at Wed Jul  6 14:06:21 2022.

 ------------------------------------------------------------------
 #N Geom=AllCheck Guess=TCheck SCRF=Check GenChk RB3LYP/ChkBas Freq
 ------------------------------------------------------------------

 Structure from the checkpoint file:  "/home/irikura/scratch/gau/Gau-227942.chk"
 ------------------------------------------
 cyclopentane, B3LYP/pcseg-2 superfine grid
 ------------------------------------------
 Charge =  0 Multiplicity = 1

                         Standard orientation:
 ---------------------------------------------------------------------
 Center     Atomic      Atomic             Coordinates (Angstroms)
 Number     Number       Type             X           Y           Z
 ---------------------------------------------------------------------
      1          6           0        0.634384   -1.115713   -0.154732
      2          6           0       -1.169057    0.476243   -0.234982
      3          6           0        0.089124    1.287893    0.120944
      4          6           0        1.272808    0.286609    0.017709
      5          6           0       -0.836723   -0.938885    0.250969
      6          1           0       -1.317062    0.465177   -1.318377
      7          1           0       -2.076330    0.884710    0.211189
      8          1           0        0.005748    1.664439    1.142116
      9          1           0        0.220318    2.156103   -0.524716
     10          1           0        1.890648    0.328331    0.914946
     11          1           0        1.927177    0.524327   -0.820906
     12          1           0        1.144649   -1.882541    0.428159
     13          1           0        0.687183   -1.424571   -1.200981
     14          1           0       -0.936326   -0.988266    1.339083
     15          1           0       -1.489218   -1.704593   -0.169963
 ---------------------------------------------------------------------

 SCF Done:  E(RB3LYP) =  -196.634701445     A.U. after    1 cycles

 The electronic state is 1-A.
 Alpha  occ. eigenvalues --  -10.16036 -10.16023 -10.16021 -10.15998 -10.15997
 Alpha  occ. eigenvalues --   -0.82914  -0.70491  -0.70453  -0.56768  -0.56047
 Alpha  occ. eigenvalues --   -0.47972  -0.47638  -0.41411  -0.41300  -0.33808
 Alpha  occ. eigenvalues --   -0.33749  -0.33499  -0.33204  -0.32365  -0.31488
 Alpha virt. eigenvalues --    0.01156   0.03199   0.04549   0.04598   0.07379
 Alpha virt. eigenvalues --    0.07658   0.08462   0.08579   0.08939   0.13670
 Alpha virt. eigenvalues --    0.14032   0.15040   0.15604   0.17482   0.18736

 Mulliken charges:
               1
     1  C   -0.062113
     2  C   -0.061166
     3  C   -0.063330
     4  C   -0.070981
     5  C   -0.061138
     6  H    0.026213
     7  H    0.036708
     8  H    0.033396
     9  H    0.031972
    10  H    0.031282
    11  H    0.031007
    12  H    0.032917
    13  H    0.032774
    14  H    0.024833
    15  H    0.037627
 Sum of Mulliken charges =   0.00000

 Dipole moment (field-independent basis, Debye):
    X=             -0.0203    Y=             -0.0081    Z=              0.0003  Tot=              0.0218
 Quadrupole moment (field-independent basis, Debye-Ang):
   XX=            -34.2827   YY=            -34.2720   ZZ=            -32.9546
   XY=             -0.0043   XZ=             -0.0011   YZ=             -0.0413

  Exact polarizability:  61.475   0.002  61.451   0.002   0.137  53.174
 Approx polarizability:  80.558   0.008  80.518   0.002   0.179  78.996

                      1                      2                      3
                      A                      A                      A
 Frequencies --      8.3054               259.0109               553.5916
 Red. masses --      1.5625                 1.5928                 1.6882
 Frc consts  --      0.0001                 0.0630                 0.3048
 IR Inten    --      0.0149                 0.0111                 1.0727

                      4                      5                      6
                      A                      A                      A
 Frequencies --    622.4222               770.0608               822.6056
 Red. masses --      2.4749                 1.1720                 1.6473
 Frc consts  --      0.5649                 0.4095                 0.6568
 IR Inten    --      0.0548                 0.6132                 0.0803

                      7                      8                      9
                      A                      A                      A
 Frequencies --    867.7752               882.1027               899.6400
 Red. masses --      2.0855                 3.4394                 2.1944
 Frc consts  --      0.9253                 1.5768                 1.0464
 IR Inten    --      0.7461                 0.5696                 2.1479

                     10                     11                     12
                      A                      A                      A
 Frequencies --    906.3895               973.5264              1002.3752
 Red. masses --      2.4579                 1.2288                 1.2445
 Frc consts  --      1.1897                 0.6862                 0.7367
 IR Inten    --      1.9309                 0.9779                 0.4773

                     13                     14                     15
                      A                      A                      A
 Frequencies --   1037.6522              1048.0104              1178.5284
 Red. masses --      1.8126                 2.3845                 1.4206
 Frc consts  --      1.1499                 1.5430                 1.1625
 IR Inten    --      0.0008                 0.0252                 0.0083

                     16                     17                     18
                      A                      A                      A
 Frequencies --   1208.6209              1225.9855              1238.3693
 Red. masses --      1.4515                 1.3514                 1.4893
 Frc consts  --      1.2493                 1.1968                 1.3457
 IR Inten    --      0.2083                 0.4440                 0.1748

                     19                     20                     21
                      A                      A                      A
 Frequencies --   1284.8652              1315.5715              1321.5502
 Red. masses --      1.1215                 1.3333                 1.1834
 Frc consts  --      1.0909                 1.3596                 1.2177
 IR Inten    --      0.8614                 0.0104                 0.6256

                     22                     23                     24
                      A                      A                      A
 Frequencies --   1338.9046              1351.1549              1352.5269
 Red. masses --      1.2017                 1.4801                 1.4778
 Frc consts  --      1.2693                 1.5921                 1.5927
 IR Inten    --      0.0447                 0.0520                 0.0428

                     25                     26                     27
                      A                      A                      A
 Frequencies --   1489.4102              1494.1992              1498.7597
 Red. masses --      1.0788                 1.0880                 1.0896
 Frc consts  --      1.4100                 1.4312                 1.4421
 IR Inten    --      0.2122                 3.8784                 3.1690

                     28                     29                     30
                      A                      A                      A
 Frequencies --   1499.5851              1523.7079              3016.3054
 Red. masses --      1.0858                 1.1050                 1.0720
 Frc consts  --      1.4386                 1.5115                 5.7466
 IR Inten    --      4.3139                 0.1700                17.1565

                     31                     32                     33
                      A                      A                      A
 Frequencies --   3023.0764              3031.5087              3034.6268
 Red. masses --      1.0659                 1.0640                 1.0644
 Frc consts  --      5.7393                 5.7614                 5.7753
 IR Inten    --     36.4932                27.2202                22.7045

                     34                     35                     36
                      A                      A                      A
 Frequencies --   3050.3556              3064.8229              3075.0790
 Red. masses --      1.0644                 1.0951                 1.0887
 Frc consts  --      5.8354                 6.0607                 6.0658
 IR Inten    --     57.2060                40.6594                16.0006

                     37                     38                     39
                      A                      A                      A
 Frequencies --   3078.2193              3080.3194              3095.5784
 Red. masses --      1.1024                 1.1015                 1.1057
 Frc consts  --      6.1543                 6.1578                 6.2429
 IR Inten    --     30.1543                19.7376               101.3379

 - Thermochemistry -
 -------------------
 Temperature   298.150 Kelvin.  Pressure   1.00000 Atm.
 Atom     1 has atomic number  6 and mass  12.00000

 Molecular mass:    70.07825 amu.
 Principal axes and moments of inertia in atomic units:
                           1         2         3
     Eigenvalues --   277.82101 277.97503 482.43777
           X            0.99632  -0.08576   0.00001
           Y            0.08576   0.99632   0.00146
           Z           -0.00014  -0.00146   1.00000
 This molecule is an asymmetric top.
 Rotational symmetry number  1.
 Rotational temperatures (Kelvin)      0.31176     0.31159     0.17953
 Rotational constants (GHZ):           6.49606     6.49246     3.74088
 Zero-point vibrational energy     368001.8 (Joules/Mol)
                                   87.95455 (Kcal/Mol)
 Warning -- explicit consideration of   3 degrees of freedom as
           vibrations may cause significant error
 Vibrational temperatures:     11.95   372.66   796.49   895.53  1107.95
          (Kelvin)           1183.55  1248.53  1269.15  1294.38  1304.09
                             1400.69  1442.19  1492.95  1507.85  1695.64
                             1738.94  1763.92  1781.74  1848.63  1892.81
                             1901.42  1926.39  1944.01  1945.98  2142.93
                             2149.82  2156.38  2157.57  2192.28  4339.79
                             4349.53  4361.66  4366.15  4388.78  4409.60
                             4424.35  4428.87  4431.89  4453.85

 Zero-point correction=                           0.140164 (Hartree/Particle)
 Thermal correction to Energy=                    0.145405
 Thermal correction to Enthalpy=                  0.146350
 Thermal correction to Gibbs Free Energy=         0.109999
 Sum of electronic and zero-point Energies=           -196.494537
 Sum of electronic and thermal Energies=              -196.489296
 Sum of electronic and thermal Enthalpies=            -196.488352
 Sum of electronic and thermal Free Energies=         -196.524702

                     E (Thermal)             CV                S
                      KCal/Mol        Cal/Mol-Kelvin    Cal/Mol-Kelvin
 Total                   91.243             18.614             76.505
 Electronic               0.000              0.000              0.000
 Translational            0.889              2.981             38.658
 Rotational               0.889              2.981             25.125
 Vibrational             89.466             12.652             12.722
 Vibration     1          0.593              1.987              8.380
 Vibration     2          0.668              1.748              1.668
 Vibration     3          0.909              1.132              0.537

                           ! Non-Optimized Parameters !
 Normal termination of Gaussian 16 at Wed Jul  6 14:13:12 2022.
