 Gaussian 16, Revision B.01,

 -----------------------------------------
 # b3lyp/gen opt=vtight freq int=superfine
 -----------------------------------------

 -----------------------------------------------------------------
 cyclopentane, C2 symm, B3LYP/pcseg-2, vtight geom, superfine ints
 -----------------------------------------------------------------
 Symbolic Z-matrix:
 Charge =  0 Multiplicity = 1

 SCF Done:  E(RB3LYP) =  -196.568135140     A.U. after   11 cycles
 SCF Done:  E(RB3LYP) =  -196.602796622     A.U. after   10 cycles
 SCF Done:  E(RB3LYP) =  -196.628295316     A.U. after   10 cycles
 SCF Done:  E(RB3LYP) =  -196.630042703     A.U. after    9 cycles
 SCF Done:  E(RB3LYP) =  -196.631977226     A.U. after    9 cycles
 SCF Done:  E(RB3LYP) =  -196.632180559     A.U. after   11 cycles
 SCF Done:  E(RB3LYP) =  -196.634195091     A.U. after    9 cycles
 SCF Done:  E(RB3LYP) =  -196.634526559     A.U. after    8 cycles
 SCF Done:  E(RB3LYP) =  -196.634690160     A.U. after    8 cycles
 SCF Done:  E(RB3LYP) =  -196.634702765     A.U. after    7 cycles
 SCF Done:  E(RB3LYP) =  -196.634703064     A.U. after    5 cycles
 SCF Done:  E(RB3LYP) =  -196.634703071     A.U. after    4 cycles
 SCF Done:  E(RB3LYP) =  -196.634703072     A.U. after    3 cycles
 SCF Done:  E(RB3LYP) =  -196.634703072     A.U. after    2 cycles
 SCF Done:  E(RB3LYP) =  -196.634703072     A.U. after    2 cycles
 Optimization completed.
    -- Stationary point found.
 Normal termination of Gaussian 16 at Mon Oct 23 10:07:55 2023.

 ------------------------------------------------------------------
 #N Geom=AllCheck Guess=TCheck SCRF=Check GenChk RB3LYP/ChkBas Freq
 ------------------------------------------------------------------

 Structure from the checkpoint file:  "cyc5.chk"
 -----------------------------------------------------------------
 cyclopentane, C2 symm, B3LYP/pcseg-2, vtight geom, superfine ints
 -----------------------------------------------------------------
 Charge =  0 Multiplicity = 1

 SCF Done:  E(RB3LYP) =  -196.634703072     A.U. after    1 cycles

  Exact polarizability:  53.246   0.782  61.377   0.000   0.000  61.476
 Approx polarizability:  78.975  -0.006  80.535   0.000  -0.000  80.562

                      1                      2                      3
                      B                      A                      B
 Frequencies --     12.7301               259.1170               553.6890
 Red. masses --      1.5625                 1.5929                 1.6886
 Frc consts  --      0.0001                 0.0630                 0.3050
 IR Inten    --      0.0147                 0.0112                 1.0730

                      4                      5                      6
                      A                      B                      A
 Frequencies --    622.4522               770.1866               822.5843
 Red. masses --      2.4748                 1.1716                 1.6484
 Frc consts  --      0.5649                 0.4095                 0.6572
 IR Inten    --      0.0549                 0.6153                 0.0792

                      7                      8                      9
                      B                      A                      B
 Frequencies --    867.8449               882.2091               899.7420
 Red. masses --      2.0844                 3.4386                 2.2005
 Frc consts  --      0.9250                 1.5768                 1.0496
 IR Inten    --      0.7454                 0.5670                 2.1367

                     10                     11                     12
                      A                      B                      A
 Frequencies --    906.4960               973.5415              1002.4303
 Red. masses --      2.4488                 1.2288                 1.2442
 Frc consts  --      1.1856                 0.6862                 0.7367
 IR Inten    --      1.9470                 0.9823                 0.4715

                     13                     14                     15
                      A                      B                      A
 Frequencies --   1037.9830              1047.8268              1178.6087
 Red. masses --      1.8019                 2.4004                 1.4209
 Frc consts  --      1.1438                 1.5528                 1.1630
 IR Inten    --      0.0000                 0.0276                 0.0092

                     16                     17                     18
                      B                      B                      A
 Frequencies --   1208.2455              1226.9905              1237.7581
 Red. masses --      1.4496                 1.3482                 1.4958
 Frc consts  --      1.2468                 1.1959                 1.3502
 IR Inten    --      0.1953                 0.5083                 0.1215

                     19                     20                     21
                      A                      B                      B
 Frequencies --   1284.9169              1315.5466              1321.6111
 Red. masses --      1.1218                 1.3318                 1.1850
 Frc consts  --      1.0912                 1.3580                 1.2194
 IR Inten    --      0.8668                 0.0080                 0.6221

                     22                     23                     24
                      A                      B                      A
 Frequencies --   1338.9203              1351.3040              1352.4828
 Red. masses --      1.2018                 1.4786                 1.4798
 Frc consts  --      1.2694                 1.5908                 1.5948
 IR Inten    --      0.0452                 0.0590                 0.0360

                     25                     26                     27
                      A                      B                      A
 Frequencies --   1489.4421              1494.3055              1498.9430
 Red. masses --      1.0788                 1.0879                 1.0903
 Frc consts  --      1.4101                 1.4312                 1.4434
 IR Inten    --      0.2080                 3.8705                 3.1000

                     28                     29                     30
                      B                      A                      A
 Frequencies --   1499.4694              1523.7343              3016.3588
 Red. masses --      1.0851                 1.1050                 1.0721
 Frc consts  --      1.4375                 1.5115                 5.7472
 IR Inten    --      4.3977                 0.1666                16.7803

                     31                     32                     33
                      B                      A                      B
 Frequencies --   3022.9186              3033.0306              3033.2214
 Red. masses --      1.0657                 1.0631                 1.0655
 Frc consts  --      5.7376                 5.7621                 5.7760
 IR Inten    --     37.5763                 0.0466                49.5195

                     34                     35                     36
                      A                      B                      A
 Frequencies --   3050.4431              3064.8369              3075.0974
 Red. masses --      1.0643                 1.0952                 1.0887
 Frc consts  --      5.8352                 6.0611                 6.0654
 IR Inten    --     56.9318                40.5070                15.6661

                     37                     38                     39
                      B                      A                      B
 Frequencies --   3078.1645              3080.4196              3095.5876
 Red. masses --      1.1026                 1.1014                 1.1057
 Frc consts  --      6.1551                 6.1575                 6.2430
 IR Inten    --     31.1454                19.0962               101.3959

 - Thermochemistry -
 -------------------
 Temperature   298.150 Kelvin.  Pressure   1.00000 Atm.
 Atom     1 has atomic number  6 and mass  12.00000

 Molecular mass:    70.07825 amu.
 Principal axes and moments of inertia in atomic units:
                           1         2         3
     Eigenvalues --   277.81534 277.98062 482.43922
           X            0.00000   0.11276   0.99362
           Y            0.00000   0.99362  -0.11276
           Z            1.00000  -0.00000  -0.00000
 This molecule is an asymmetric top.
 Rotational symmetry number  2.
 Rotational temperatures (Kelvin)      0.31177     0.31158     0.17953
 Rotational constants (GHZ):           6.49619     6.49233     3.74087
 Zero-point vibrational energy     368038.2 (Joules/Mol)
                                   87.96325 (Kcal/Mol)
 Warning -- explicit consideration of   3 degrees of freedom as
           vibrations may cause significant error
 Vibrational temperatures:     18.32   372.81   796.63   895.57  1108.13
          (Kelvin)           1183.52  1248.64  1269.30  1294.53  1304.25
                             1400.71  1442.27  1493.43  1507.59  1695.76
                             1738.40  1765.37  1780.86  1848.71  1892.78
                             1901.50  1926.41  1944.23  1945.92  2142.98
                             2149.97  2156.64  2157.40  2192.31  4339.87
                             4349.31  4363.85  4364.13  4388.91  4409.62
                             4424.38  4428.79  4432.04  4453.86

 Zero-point correction=                           0.140178 (Hartree/Particle)
 Thermal correction to Energy=                    0.145409
 Thermal correction to Enthalpy=                  0.146353
 Thermal correction to Gibbs Free Energy=         0.111061
 Sum of electronic and zero-point Energies=           -196.494525
 Sum of electronic and thermal Energies=              -196.489294
 Sum of electronic and thermal Enthalpies=            -196.488350
 Sum of electronic and thermal Free Energies=         -196.523642

                     E (Thermal)             CV                S
                      KCal/Mol        Cal/Mol-Kelvin    Cal/Mol-Kelvin
 Total                   91.246             18.612             74.278
 Electronic               0.000              0.000              0.000
 Translational            0.889              2.981             38.658
 Rotational               0.889              2.981             23.747
 Vibrational             89.468             12.650             11.872
 Vibration     1          0.593              1.987              7.531
 Vibration     2          0.668              1.747              1.668
 Vibration     3          0.909              1.132              0.537

 Optimization completed.
    -- Stationary point found.
 Normal termination of Gaussian 16 at Mon Oct 23 10:27:14 2023.
 Gaussian 16:  ES64L-G16RevB.01 20-Dec-2017

 ---------------------------------
 # rohf/gen geom=check guess=check
 ---------------------------------

 ------------------------------
 cyclopentane, ROHF/cc-pVTZ-F12
 ------------------------------
 Structure from the checkpoint file:  "cyc5.chk"
 Charge =  0 Multiplicity = 1

                         Standard orientation:
 ---------------------------------------------------------------------
 Center     Atomic      Atomic             Coordinates (Angstroms)
 Number     Number       Type             X           Y           Z
 ---------------------------------------------------------------------
      1          6           0        0.000000    1.240218    0.371550
      2          6           0        0.323234    0.694806   -1.029161
      3          6           0       -0.323234   -0.694806   -1.029161
      4          6           0       -0.000000   -1.240218    0.371550
      5          6           0        0.000000    0.000000    1.305015
      6          1           0       -0.989484    1.701759    0.363162
      7          1           0        0.703326    2.007156    0.695796
      8          1           0       -0.039242    1.340314   -1.829840
      9          1           0        1.405114    0.596452   -1.155489
     10          1           0        0.039242   -1.340314   -1.829840
     11          1           0       -1.405114   -0.596452   -1.155489
     12          1           0        0.989484   -1.701759    0.363162
     13          1           0       -0.703326   -2.007156    0.695796
     14          1           0        0.873555   -0.005737    1.956992
     15          1           0       -0.873555    0.005737    1.956992
 ---------------------------------------------------------------------

 SCF Done:  E(ROHF) =  -195.240207285     A.U. after    9 cycles

 The electronic state is 1-A.
 Alpha  occ. eigenvalues --  -11.21077 -11.21038 -11.21035 -11.20978 -11.20961
 Alpha  occ. eigenvalues --   -1.11101  -0.95554  -0.95507  -0.77545  -0.76796
 Alpha  occ. eigenvalues --   -0.64778  -0.64216  -0.56889  -0.56758  -0.47400
 Alpha  occ. eigenvalues --   -0.47320  -0.46366  -0.46040  -0.45849  -0.44917
 Alpha virt. eigenvalues --    0.05248   0.05274   0.05571   0.05689   0.06687
 Alpha virt. eigenvalues --    0.07989   0.09116   0.09128   0.09389   0.11695
 Alpha virt. eigenvalues --    0.12461   0.12500   0.13371   0.13544   0.14056

 Mulliken charges and spin densities:
               1          2
     1  C   -0.161535   0.000000
     2  C   -0.119876   0.000000
     3  C   -0.119876   0.000000
     4  C   -0.161535   0.000000
     5  C   -0.168591   0.000000
     6  H    0.088145   0.000000
     7  H    0.063139   0.000000
     8  H    0.054724   0.000000
     9  H    0.080231   0.000000
    10  H    0.054724   0.000000
    11  H    0.080231   0.000000
    12  H    0.088145   0.000000
    13  H    0.063139   0.000000
    14  H    0.079468   0.000000
    15  H    0.079468   0.000000
 Sum of Mulliken charges =  -0.00000   0.00000

 Dipole moment (field-independent basis, Debye):
    X=             -0.0000    Y=             -0.0000    Z=             -0.0146  Tot=              0.0146
 Quadrupole moment (field-independent basis, Debye-Ang):
   XX=            -32.8256   YY=            -34.1619   ZZ=            -34.1806
   XY=             -0.1138   XZ=             -0.0000   YZ=              0.0000

 Normal termination of Gaussian 16 at Mon Oct 23 10:30:18 2023.
