 Gaussian 16, Revision B.01,

 ---------------------------------------
 # b3lyp/gen opt freq CPHF(Grid=OneStep)
 ---------------------------------------

 ---------------------------------
 methylcyclopentane, B3LYP/pcseg-2
 ---------------------------------
 Symbolic Z-matrix:
 Charge =  0 Multiplicity = 1

 SCF Done:  E(RB3LYP) =  -235.965207906     A.U. after   11 cycles
 Optimization completed.
    -- Stationary point found.
 Normal termination of Gaussian 16 at Sat Sep 30 02:21:05 2023.

 ------------------------------------------------------------------
 #N Geom=AllCheck Guess=TCheck SCRF=Check GenChk RB3LYP/ChkBas Freq
 ------------------------------------------------------------------

 Structure from the checkpoint file:  "cyc5me.chk"
 ---------------------------------
 methylcyclopentane, B3LYP/pcseg-2
 ---------------------------------
 Charge =  0 Multiplicity = 1

 SCF Done:  E(RB3LYP) =  -235.965207906     A.U. after    1 cycles

  Exact polarizability:  63.091   1.533  79.029   0.000  -0.000  71.232
 Approx polarizability:  96.167  -0.166  97.711  -0.000   0.000  97.125

                      1                      2                      3
                     A"                     A'                     A"
 Frequencies --     30.4654               173.3112               232.8680
 Red. masses --      1.5536                 2.0959                 1.0333
 Frc consts  --      0.0008                 0.0371                 0.0330
 IR Inten    --      0.0263                 0.0048                 0.0006

                      4                      5                      6
                     A"                     A'                     A'
 Frequencies --    303.2551               425.5491               531.0459
 Red. masses --      2.2994                 1.8286                 2.8940
 Frc consts  --      0.1246                 0.1951                 0.4808
 IR Inten    --      0.0225                 0.1542                 0.4238

                      7                      8                      9
                     A"                     A'                     A"
 Frequencies --    633.4539               757.6914               815.6042
 Red. masses --      2.5734                 1.2444                 1.6321
 Frc consts  --      0.6084                 0.4209                 0.6397
 IR Inten    --      0.1819                 0.5415                 0.1386

                     10                     11                     12
                     A'                     A'                     A"
 Frequencies --    850.0130               886.7002               913.1725
 Red. masses --      2.5496                 2.5422                 1.9280
 Frc consts  --      1.0854                 1.1776                 0.9473
 IR Inten    --      0.7544                 1.0749                 0.4778

                     13                     14                     15
                     A'                     A"                     A"
 Frequencies --    929.6240               982.7855               994.1954
 Red. masses --      1.5272                 1.2697                 1.7116
 Frc consts  --      0.7776                 0.7226                 0.9968
 IR Inten    --      0.0012                 0.3086                 2.2830

                     16                     17                     18
                     A'                     A'                     A'
 Frequencies --   1016.6715              1044.2203              1098.8889
 Red. masses --      1.7522                 1.6852                 2.1811
 Frc consts  --      1.0671                 1.0827                 1.5518
 IR Inten    --      0.5759                 0.3254                 0.1062

                     19                     20                     21
                     A"                     A"                     A'
 Frequencies --   1155.1362              1205.7632              1214.8562
 Red. masses --      2.0931                 1.4767                 1.3645
 Frc consts  --      1.6456                 1.2649                 1.1866
 IR Inten    --      1.1270                 0.3339                 0.3334

                     22                     23                     24
                     A'                     A"                     A"
 Frequencies --   1246.0639              1265.8500              1306.0876
 Red. masses --      1.5664                 1.2086                 1.2929
 Frc consts  --      1.4329                 1.1411                 1.2995
 IR Inten    --      0.4937                 0.3425                 0.0011

                     25                     26                     27
                     A'                     A'                     A"
 Frequencies --   1320.5313              1330.5628              1336.1267
 Red. masses --      1.1854                 1.3384                 1.2820
 Frc consts  --      1.2179                 1.3960                 1.3484
 IR Inten    --      1.0037                 0.2858                 0.2401

                     28                     29                     30
                     A"                     A'                     A'
 Frequencies --   1350.2706              1388.0419              1411.5807
 Red. masses --      1.4019                 1.5723                 1.2394
 Frc consts  --      1.5060                 1.7848                 1.4550
 IR Inten    --      0.6332                 1.9704                 3.0646

                     31                     32                     33
                     A"                     A'                     A"
 Frequencies --   1487.2509              1495.3088              1496.1214
 Red. masses --      1.0805                 1.0730                 1.0524
 Frc consts  --      1.4082                 1.4136                 1.3879
 IR Inten    --      0.0406                 1.6060                 3.9935

                     34                     35                     36
                     A"                     A'                     A'
 Frequencies --   1497.3421              1501.9824              1520.4848
 Red. masses --      1.0864                 1.0548                 1.1032
 Frc consts  --      1.4351                 1.4021                 1.5027
 IR Inten    --      2.7078                10.9013                 1.7027

                     37                     38                     39
                     A'                     A"                     A'
 Frequencies --   2982.9784              3011.0815              3015.9176
 Red. masses --      1.0818                 1.0676                 1.0501
 Frc consts  --      5.6717                 5.7031                 5.6274
 IR Inten    --      9.6261                21.6247                10.8219

                     40                     41                     42
                     A'                     A"                     A'
 Frequencies --   3021.8463              3037.4065              3049.9321
 Red. masses --      1.0523                 1.0648                 1.0667
 Frc consts  --      5.6614                 5.7881                 5.8461
 IR Inten    --     80.0397                14.5519                48.2574

                     43                     44                     45
                     A"                     A'                     A"
 Frequencies --   3062.7759              3070.7103              3074.7239
 Red. masses --      1.0929                 1.0926                 1.1033
 Frc consts  --      6.0404                 6.0702                 6.1454
 IR Inten    --     52.3969                 7.8147                13.5286

                     46                     47                     48
                     A'                     A"                     A'
 Frequencies --   3078.8662              3082.1776              3093.7550
 Red. masses --      1.0996                 1.1014                 1.1052
 Frc consts  --      6.1417                 6.1648                 6.2323
 IR Inten    --     33.6190                35.0207                96.7634

 - Thermochemistry -
 -------------------
 Temperature   298.150 Kelvin.  Pressure   1.00000 Atm.
 Atom     1 has atomic number  6 and mass  12.00000

 Molecular mass:    84.09390 amu.
 Principal axes and moments of inertia in atomic units:
                           1         2         3
     Eigenvalues --   288.86376 617.11892 819.26718
           X            0.12396   0.00000   0.99229
           Y            0.99229   0.00000  -0.12396
           Z           -0.00000   1.00000  -0.00000
 This molecule is an asymmetric top.
 Rotational symmetry number  1.
 Rotational temperatures (Kelvin)      0.29984     0.14035     0.10572
 Rotational constants (GHZ):           6.24772     2.92446     2.20287
 Zero-point vibrational energy     441009.6 (Joules/Mol)
                                  105.40383 (Kcal/Mol)
 Warning -- explicit consideration of   6 degrees of freedom as
           vibrations may cause significant error
 Vibrational temperatures:     43.83   249.36   335.05   436.32   612.27
          (Kelvin)            764.06   911.40  1090.15  1173.47  1222.98
                             1275.76  1313.85  1337.52  1414.01  1430.43
                             1462.76  1502.40  1581.06  1661.98  1734.82
                             1747.91  1792.81  1821.28  1879.17  1899.95
                             1914.38  1922.39  1942.74  1997.08  2030.95
                             2139.82  2151.42  2152.58  2154.34  2161.02
                             2187.64  4291.84  4332.27  4339.23  4347.76
                             4370.15  4388.17  4406.65  4418.07  4423.84
                             4429.80  4434.57  4451.22

 Zero-point correction=                           0.167972 (Hartree/Particle)
 Thermal correction to Energy=                    0.174570
 Thermal correction to Enthalpy=                  0.175514
 Thermal correction to Gibbs Free Energy=         0.137098
 Sum of electronic and zero-point Energies=           -235.797236
 Sum of electronic and thermal Energies=              -235.790638
 Sum of electronic and thermal Enthalpies=            -235.789694
 Sum of electronic and thermal Free Energies=         -235.828110

                     E (Thermal)             CV                S
                      KCal/Mol        Cal/Mol-Kelvin    Cal/Mol-Kelvin
 Total                  109.544             24.282             80.852
 Electronic               0.000              0.000              0.000
 Translational            0.889              2.981             39.202
 Rotational               0.889              2.981             26.482
 Vibrational            107.767             18.321             15.168
 Vibration     1          0.594              1.984              5.799
 Vibration     2          0.627              1.875              2.399
 Vibration     3          0.654              1.791              1.857
 Vibration     4          0.695              1.668              1.399
 Vibration     5          0.787              1.415              0.873
 Vibration     6          0.886              1.181              0.585

 Optimization completed.
    -- Stationary point found.
 Normal termination of Gaussian 16 at Sat Sep 30 02:46:27 2023.
 Gaussian 16:  ES64L-G16RevB.01 20-Dec-2017

 ---------------------------------
 # rohf/gen geom=check guess=check
 ---------------------------------

 ------------------------------------
 methylcyclopentane, ROHF/cc-pVTZ-F12
 ------------------------------------
 Structure from the checkpoint file:  "cyc5me.chk"
 Charge =  0 Multiplicity = 1

                         Standard orientation:
 ---------------------------------------------------------------------
 Center     Atomic      Atomic             Coordinates (Angstroms)
 Number     Number       Type             X           Y           Z
 ---------------------------------------------------------------------
      1          6           0        0.213925    2.216708    0.000000
      2          6           0        0.450734    0.711224    0.000000
      3          6           0       -0.158426   -0.036002    1.195913
      4          6           0       -0.158426   -0.036002   -1.195913
      5          6           0       -0.158426   -1.520284   -0.778285
      6          6           0       -0.158426   -1.520284    0.778285
      7          1           0        0.651967    2.689767   -0.880809
      8          1           0        0.651967    2.689767    0.880809
      9          1           0       -0.855653    2.440388    0.000000
     10          1           0        1.531908    0.527459   -0.000000
     11          1           0        0.380763    0.142197    2.127331
     12          1           0        0.380763    0.142197   -2.127331
     13          1           0       -1.183704    0.315558    1.346604
     14          1           0       -1.183704    0.315558   -1.346604
     15          1           0        0.733669   -2.021357   -1.156118
     16          1           0        0.733669   -2.021357    1.156118
     17          1           0       -1.013684   -2.056169   -1.189371
     18          1           0       -1.013684   -2.056169    1.189371
 ---------------------------------------------------------------------

 SCF Done:  E(ROHF) =  -234.291553493     A.U. after    9 cycles

 The electronic state is 1-A'.
 Alpha  occ. eigenvalues --  -11.21621 -11.21047 -11.20994 -11.20833 -11.20831
 Alpha  occ. eigenvalues --  -11.20656  -1.11938  -1.00107  -0.95612  -0.88748
 Alpha  occ. eigenvalues --   -0.77058  -0.75802  -0.65116  -0.62185  -0.58687
 Alpha  occ. eigenvalues --   -0.57402  -0.55185  -0.51896  -0.47307  -0.46617
 Alpha  occ. eigenvalues --   -0.46082  -0.44947  -0.44803  -0.43977
 Alpha virt. eigenvalues --    0.04632   0.05112   0.05239   0.05548   0.06777
 Alpha virt. eigenvalues --    0.07007   0.08491   0.08615   0.09005   0.10612
 Alpha virt. eigenvalues --    0.11520   0.11569   0.11866   0.12804   0.13219

 Mulliken charges and spin densities:
               1          2
     1  C   -0.361796   0.000000
     2  C    0.067313   0.000000
     3  C   -0.155867   0.000000
     4  C   -0.155867   0.000000
     5  C   -0.189415   0.000000
     6  C   -0.189415   0.000000
     7  H    0.090917   0.000000
     8  H    0.090917   0.000000
     9  H    0.097558   0.000000
    10  H    0.087318   0.000000
    11  H    0.060227   0.000000
    12  H    0.060227   0.000000
    13  H    0.084285   0.000000
    14  H    0.084285   0.000000
    15  H    0.088374   0.000000
    16  H    0.088374   0.000000
    17  H    0.076282   0.000000
    18  H    0.076282   0.000000
 Sum of Mulliken charges =  -0.00000   0.00000

 Dipole moment (field-independent basis, Debye):
    X=              0.0836    Y=             -0.0304    Z=              0.0000  Tot=              0.0890
 Quadrupole moment (field-independent basis, Debye-Ang):
   XX=            -39.4995   YY=            -41.4702   ZZ=            -40.8306
   XY=              0.0401   XZ=              0.0000   YZ=              0.0000

 Normal termination of Gaussian 16 at Sat Sep 30 02:52:19 2023.
