 Gaussian 16, Revision B.01,

 ---------------------------------------
 # b3lyp/gen opt freq CPHF(Grid=OneStep)
 ---------------------------------------

 --------------------------
 cyclohexane, B3LYP/pcseg-2
 --------------------------
 Symbolic Z-matrix:
 Charge =  0 Multiplicity = 1

 SCF Done:  E(RB3LYP) =  -235.972040170     A.U. after   10 cycles
 Optimization completed.
    -- Stationary point found.
 Normal termination of Gaussian 16 at Sun Oct  1 00:05:50 2023.

 ------------------------------------------------------------------
 #N Geom=AllCheck Guess=TCheck SCRF=Check GenChk RB3LYP/ChkBas Freq
 ------------------------------------------------------------------

 Structure from the checkpoint file:  "cyc6.chk"
 --------------------------
 cyclohexane, B3LYP/pcseg-2
 --------------------------
 Charge =  0 Multiplicity = 1

 SCF Done:  E(RB3LYP) =  -235.972035005     A.U. after    3 cycles

  Exact polarizability:  73.699   0.000  73.699  -0.000   0.000  64.186
 Approx polarizability:  96.344  -0.000  96.344  -0.000   0.000  98.245

                      1                      2                      3
                     EU                     EU                     AG
 Frequencies --    230.5969               230.5969               375.5819
 Red. masses --      1.7584                 1.7584                 1.5361
 Frc consts  --      0.0551                 0.0551                 0.1277
 IR Inten    --      0.0014                 0.0014                 0.0000

                      4                      5                      6
                     EG                     EG                     AU
 Frequencies --    433.7926               433.7926               523.4347
 Red. masses --      2.9788                 2.9788                 1.3077
 Frc consts  --      0.3303                 0.3303                 0.2111
 IR Inten    --      0.0000                 0.0000                 0.6678

                      7                      8                      9
                     EG                     EG                     AG
 Frequencies --    796.2684               796.2684               801.2182
 Red. masses --      1.4553                 1.4553                 3.5797
 Frc consts  --      0.5437                 0.5437                 1.3540
 IR Inten    --      0.0000                 0.0000                 0.0000

                     10                     11                     12
                     EU                     EU                     EU
 Frequencies --    864.4834               864.4834               919.8306
 Red. masses --      2.4591                 2.4591                 1.2856
 Frc consts  --      1.0828                 1.0828                 0.6409
 IR Inten    --      1.8807                 1.8806                 1.8027

                     13                     14                     15
                     EU                     EG                     EG
 Frequencies --    919.8306              1035.6858              1035.6858
 Red. masses --      1.2856                 1.7789                 1.7789
 Frc consts  --      0.6409                 1.1242                 1.1242
 IR Inten    --      1.8028                 0.0000                 0.0000

                     16                     17                     18
                     AU                     AG                     AU
 Frequencies --   1045.3797              1076.8228              1095.2218
 Red. masses --      2.6216                 1.0105                 3.0104
 Frc consts  --      1.6880                 0.6904                 2.1275
 IR Inten    --      2.4768                 0.0000                 0.0000

                     19                     20                     21
                     AU                     AG                     EU
 Frequencies --   1129.9316              1184.2846              1288.2351
 Red. masses --      1.0317                 2.2533                 1.2915
 Frc consts  --      0.7761                 1.8620                 1.2628
 IR Inten    --      0.0000                 0.0000                 1.9297

                     22                     23                     24
                     EU                     EG                     EG
 Frequencies --   1288.2351              1292.3937              1292.3937
 Red. masses --      1.2915                 1.2408                 1.2408
 Frc consts  --      1.2628                 1.2211                 1.2211
 IR Inten    --      1.9297                 0.0000                 0.0000

                     25                     26                     27
                     AG                     AU                     EG
 Frequencies --   1355.9073              1370.3511              1376.8090
 Red. masses --      1.3044                 1.3049                 1.4765
 Frc consts  --      1.4129                 1.4437                 1.6491
 IR Inten    --      0.0000                 0.0000                 0.0000

                     28                     29                     30
                     EG                     EU                     EU
 Frequencies --   1376.8090              1388.3835              1388.3835
 Red. masses --      1.4765                 1.4304                 1.4304
 Frc consts  --      1.6491                 1.6246                 1.6246
 IR Inten    --      0.0000                 0.2071                 0.2071

                     31                     32                     33
                     EG                     EG                     EU
 Frequencies --   1486.1087              1486.1087              1490.5441
 Red. masses --      1.0873                 1.0873                 1.0968
 Frc consts  --      1.4148                 1.4148                 1.4357
 IR Inten    --      0.0000                 0.0000                 5.4274

                     34                     35                     36
                     EU                     AU                     AG
 Frequencies --   1490.5441              1496.1376              1510.1668
 Red. masses --      1.0968                 1.0793                 1.0986
 Frc consts  --      1.4357                 1.4234                 1.4762
 IR Inten    --      5.4279                14.2172                 0.0000

                     37                     38                     39
                     EU                     EU                     AG
 Frequencies --   2997.6514              2997.6514              2998.5502
 Red. masses --      1.0701                 1.0701                 1.0741
 Frc consts  --      5.6654                 5.6654                 5.6903
 IR Inten    --     25.7810                25.7806                 0.0000

                     40                     41                     42
                     EG                     EG                     AU
 Frequencies --   3005.3722              3005.3722              3008.4317
 Red. masses --      1.0615                 1.0615                 1.0596
 Frc consts  --      5.6491                 5.6491                 5.6501
 IR Inten    --      0.0000                 0.0000                74.5367

                     43                     44                     45
                     EU                     EU                     EG
 Frequencies --   3047.7564              3047.7564              3049.6746
 Red. masses --      1.0911                 1.0911                 1.1023
 Frc consts  --      5.9712                 5.9712                 6.0401
 IR Inten    --    120.5521               120.5521                 0.0000

                     46                     47                     48
                     EG                     AG                     AU
 Frequencies --   3049.6746              3051.4903              3057.3722
 Red. masses --      1.1023                 1.0866                 1.1049
 Frc consts  --      6.0401                 5.9616                 6.0852
 IR Inten    --      0.0000                 0.0000               142.9427

 - Thermochemistry -
 -------------------
 Temperature   298.150 Kelvin.  Pressure   1.00000 Atm.
 Atom     1 has atomic number  6 and mass  12.00000

 Molecular mass:    84.09390 amu.
 Principal axes and moments of inertia in atomic units:
                           1         2         3
     Eigenvalues --   419.02720 419.02720 735.12717
           X            0.93232  -0.36163   0.00000
           Y            0.36163   0.93232   0.00000
           Z            0.00000  -0.00000   1.00000
 This molecule is an oblate symmetric top.
 Rotational symmetry number  3.
 Rotational temperatures (Kelvin)      0.20670     0.20670     0.11782
 Rotational constants (GHZ):           4.30698     4.30698     2.45501
 Zero-point vibrational energy     445533.9 (Joules/Mol)
                                  106.48516 (Kcal/Mol)
 Warning -- explicit consideration of   6 degrees of freedom as
           vibrations may cause significant error
 Vibrational temperatures:    331.78   331.78   540.38   624.13   624.13
          (Kelvin)            753.11  1145.65  1145.65  1152.77  1243.80
                             1243.80  1323.43  1323.43  1490.12  1490.12
                             1504.07  1549.31  1575.78  1625.72  1703.92
                             1853.48  1853.48  1859.47  1859.47  1950.85
                             1971.63  1980.92  1980.92  1997.57  1997.57
                             2138.18  2138.18  2144.56  2144.56  2152.61
                             2172.79  4312.95  4312.95  4314.24  4324.06
                             4324.06  4328.46  4385.04  4385.04  4387.80
                             4387.80  4390.41  4398.88

 Zero-point correction=                           0.169695 (Hartree/Particle)
 Thermal correction to Energy=                    0.175428
 Thermal correction to Enthalpy=                  0.176372
 Thermal correction to Gibbs Free Energy=         0.141943
 Sum of electronic and zero-point Energies=           -235.802340
 Sum of electronic and thermal Energies=              -235.796607
 Sum of electronic and thermal Enthalpies=            -235.795663
 Sum of electronic and thermal Free Energies=         -235.830092

                     E (Thermal)             CV                S
                      KCal/Mol        Cal/Mol-Kelvin    Cal/Mol-Kelvin
 Total                  110.083             22.902             72.462
 Electronic               0.000              0.000              0.000
 Translational            0.889              2.981             39.202
 Rotational               0.889              2.981             24.176
 Vibrational            108.305             16.940              9.084
 Vibration     1          0.652              1.794              1.874
 Vibration     2          0.652              1.794              1.874
 Vibration     3          0.746              1.522              1.057
 Vibration     4          0.795              1.397              0.846
 Vibration     5          0.795              1.397              0.846
 Vibration     6          0.878              1.198              0.602

 Optimization completed.
    -- Stationary point found.
 Normal termination of Gaussian 16 at Sun Oct  1 00:20:53 2023.
 Gaussian 16:  ES64L-G16RevB.01 20-Dec-2017

 ---------------------------------
 # rohf/gen geom=check guess=check
 ---------------------------------

 -----------------------------
 cyclohexane, ROHF/cc-pVTZ-F12
 -----------------------------
 Structure from the checkpoint file:  "cyc6.chk"
 Charge =  0 Multiplicity = 1

                         Standard orientation:
 ---------------------------------------------------------------------
 Center     Atomic      Atomic             Coordinates (Angstroms)
 Number     Number       Type             X           Y           Z
 ---------------------------------------------------------------------
      1          6           0        1.267232    0.731637    0.227619
      2          6           0       -0.000000   -1.463273    0.227619
      3          6           0       -1.267232    0.731637    0.227619
      4          6           0       -1.267232   -0.731637   -0.227619
      5          6           0        1.267232   -0.731637   -0.227619
      6          6           0       -0.000000    1.463273   -0.227619
      7          1           0        1.328882    0.767214    1.320670
      8          1           0       -0.000014   -1.534453    1.320670
      9          1           0       -1.328868    0.767239    1.320670
     10          1           0       -1.328882   -0.767214   -1.320670
     11          1           0        1.328868   -0.767239   -1.320670
     12          1           0        0.000014    1.534453   -1.320670
     13          1           0        2.155364    1.244340   -0.148877
     14          1           0       -0.000052   -2.488770   -0.148877
     15          1           0       -2.155312    1.244430   -0.148877
     16          1           0       -2.155364   -1.244340    0.148877
     17          1           0        2.155312   -1.244430    0.148877
     18          1           0        0.000052    2.488770    0.148877
 ---------------------------------------------------------------------

 SCF Done:  E(ROHF) =  -234.299464192     A.U. after    9 cycles

 The electronic state is 1-AG.
 Alpha  occ. eigenvalues --  -11.21099 -11.21071 -11.21071 -11.21010 -11.21010
 Alpha  occ. eigenvalues --  -11.20978  -1.10877  -0.99776  -0.99776  -0.82557
 Alpha  occ. eigenvalues --   -0.82557  -0.74731  -0.64502  -0.60513  -0.59336
 Alpha  occ. eigenvalues --   -0.59336  -0.52258  -0.52258  -0.51106  -0.47842
 Alpha  occ. eigenvalues --   -0.47842  -0.44756  -0.42487  -0.42487
 Alpha virt. eigenvalues --    0.04861   0.05137   0.05201   0.05201   0.06699
 Alpha virt. eigenvalues --    0.06699   0.08948   0.09048   0.09048   0.10851
 Alpha virt. eigenvalues --    0.11390   0.11390   0.12344   0.12495   0.12495

 Mulliken charges and spin densities:
               1          2
     1  C   -0.131415   0.000000
     2  C   -0.131415   0.000000
     3  C   -0.131415   0.000000
     4  C   -0.131415   0.000000
     5  C   -0.131415   0.000000
     6  C   -0.131415   0.000000
     7  H    0.074483   0.000000
     8  H    0.074483   0.000000
     9  H    0.074483   0.000000
    10  H    0.074483   0.000000
    11  H    0.074483   0.000000
    12  H    0.074483   0.000000
    13  H    0.056932   0.000000
    14  H    0.056932   0.000000
    15  H    0.056932   0.000000
    16  H    0.056932   0.000000
    17  H    0.056932   0.000000
    18  H    0.056932   0.000000
 Sum of Mulliken charges =   0.00000   0.00000

 Dipole moment (field-independent basis, Debye):
    X=             -0.0000    Y=              0.0000    Z=             -0.0000  Tot=              0.0000
 Quadrupole moment (field-independent basis, Debye-Ang):
   XX=            -40.7860   YY=            -40.7860   ZZ=            -40.0078
   XY=              0.0000   XZ=              0.0000   YZ=             -0.0000

 Normal termination of Gaussian 16 at Sun Oct  1 00:23:00 2023.
