 Gaussian 16, Revision B.01,
 Gaussian 16:  ES64L-G16RevB.01 20-Dec-2017

 --------------------
 # b3lyp/gen opt freq
 --------------------

 --------------------------
 cyclohexane, B3LYP/pcseg-2
 --------------------------
 Symbolic Z-matrix:
 Charge =  0 Multiplicity = 1

 SCF Done:  E(RB3LYP) =  -235.971885154     A.U. after   10 cycles
 SCF Done:  E(RB3LYP) =  -235.972039432     A.U. after    6 cycles
 SCF Done:  E(RB3LYP) =  -235.972040170     A.U. after    5 cycles
 Optimization completed.
    -- Stationary point found.
 Normal termination of Gaussian 16 at Thu Jun 16 09:08:12 2022.

 ------------------------------------------------------------------
 #N Geom=AllCheck Guess=TCheck SCRF=Check GenChk RB3LYP/ChkBas Freq
 ------------------------------------------------------------------

 Structure from the checkpoint file:  "/wrk/irikura/Gau-22746.chk"
 --------------------------
 cyclohexane, B3LYP/pcseg-2
 --------------------------
 Charge =  0 Multiplicity = 1

                         Standard orientation:
 ---------------------------------------------------------------------
 Center     Atomic      Atomic             Coordinates (Angstroms)
 Number     Number       Type             X           Y           Z
 ---------------------------------------------------------------------
      1          6           0        0.000000    1.463273    0.227619
      2          6           0        1.267232   -0.731637    0.227619
      3          6           0       -1.267232   -0.731637    0.227619
      4          6           0       -0.000000   -1.463273   -0.227619
      5          6           0        1.267232    0.731637   -0.227619
      6          6           0       -1.267232    0.731637   -0.227619
      7          1           0        0.000014    1.534453    1.320670
      8          1           0        1.328868   -0.767239    1.320670
      9          1           0       -1.328882   -0.767214    1.320670
     10          1           0       -0.000014   -1.534453   -1.320670
     11          1           0        1.328882    0.767214   -1.320670
     12          1           0       -1.328868    0.767239   -1.320670
     13          1           0        0.000052    2.488770   -0.148877
     14          1           0        2.155312   -1.244430   -0.148877
     15          1           0       -2.155364   -1.244340   -0.148877
     16          1           0       -0.000052   -2.488770    0.148877
     17          1           0        2.155364    1.244340    0.148877
     18          1           0       -2.155312    1.244430    0.148877
 ---------------------------------------------------------------------

 SCF Done:  E(RB3LYP) =  -235.972040170     A.U. after    1 cycles

 The electronic state is 1-AG.
 Alpha  occ. eigenvalues --  -10.16029 -10.16018 -10.16018 -10.15995 -10.15995
 Alpha  occ. eigenvalues --  -10.15984  -0.82692  -0.73805  -0.73805  -0.60506
 Alpha  occ. eigenvalues --   -0.60506  -0.54847  -0.47873  -0.44129  -0.43520
 Alpha  occ. eigenvalues --   -0.43520  -0.37732  -0.37732  -0.37308  -0.34083
 Alpha  occ. eigenvalues --   -0.34083  -0.31503  -0.29901  -0.29901
 Alpha virt. eigenvalues --    0.01507   0.03040   0.03886   0.03886   0.06996
 Alpha virt. eigenvalues --    0.06996   0.07580   0.08496   0.08496   0.09917
 Alpha virt. eigenvalues --    0.11231   0.11231   0.13520   0.17407   0.17407

 Mulliken charges:
               1
     1  C   -0.048267
     2  C   -0.048267
     3  C   -0.048267
     4  C   -0.048267
     5  C   -0.048267
     6  C   -0.048267
     7  H    0.021746
     8  H    0.021746
     9  H    0.021746
    10  H    0.021746
    11  H    0.021746
    12  H    0.021746
    13  H    0.026521
    14  H    0.026521
    15  H    0.026521
    16  H    0.026521
    17  H    0.026521
    18  H    0.026521
 Sum of Mulliken charges =  -0.00000

 Dipole moment (field-independent basis, Debye):
    X=              0.0000    Y=             -0.0000    Z=             -0.0000  Tot=              0.0000
 Quadrupole moment (field-independent basis, Debye-Ang):
   XX=            -40.8440   YY=            -40.8440   ZZ=            -40.2170
   XY=             -0.0000   XZ=              0.0000   YZ=              0.0000

  Exact polarizability:  73.699   0.000  73.700   0.000   0.000  64.186
 Approx polarizability:  96.345   0.000  96.345   0.000   0.000  98.245

                      1                      2                      3
                     EU                     EU                     AG
 Frequencies --    231.2528               231.2528               375.3598
 Red. masses --      1.7591                 1.7591                 1.5360
 Frc consts  --      0.0554                 0.0554                 0.1275
 IR Inten    --      0.0014                 0.0014                 0.0000

                      4                      5                      6
                     EG                     EG                     AU
 Frequencies --    434.8369               434.8369               523.2033
 Red. masses --      2.9758                 2.9758                 1.3075
 Frc consts  --      0.3315                 0.3315                 0.2109
 IR Inten    --      0.0000                 0.0000                 0.6679

                      7                      8                      9
                     EG                     EG                     AG
 Frequencies --    796.8189               796.8189               801.1793
 Red. masses --      1.4555                 1.4555                 3.5811
 Frc consts  --      0.5445                 0.5445                 1.3543
 IR Inten    --      0.0000                 0.0000                 0.0000

                     10                     11                     12
                     EU                     EU                     EU
 Frequencies --    864.9900               864.9900               920.0454
 Red. masses --      2.4578                 2.4578                 1.2857
 Frc consts  --      1.0835                 1.0835                 0.6412
 IR Inten    --      1.8861                 1.8866                 1.8032

                     13                     14                     15
                     EU                     EG                     EG
 Frequencies --    920.0454              1035.6894              1035.6894
 Red. masses --      1.2857                 1.7815                 1.7815
 Frc consts  --      0.6412                 1.1259                 1.1259
 IR Inten    --      1.8032                 0.0000                 0.0000

                     16                     17                     18
                     AU                     AG                     AU
 Frequencies --   1045.4111              1077.3653              1095.6096
 Red. masses --      2.6219                 1.0105                 3.0163
 Frc consts  --      1.6883                 0.6910                 2.1332
 IR Inten    --      2.4771                 0.0000                 0.0000

                     19                     20                     21
                     AU                     AG                     EU
 Frequencies --   1130.0020              1184.2569              1288.5210
 Red. masses --      1.0318                 2.2531                 1.2912
 Frc consts  --      0.7762                 1.8617                 1.2630
 IR Inten    --      0.0000                 0.0000                 1.9230

                     22                     23                     24
                     EU                     EG                     EG
 Frequencies --   1288.5210              1292.4871              1292.4871
 Red. masses --      1.2912                 1.2420                 1.2420
 Frc consts  --      1.2630                 1.2224                 1.2224
 IR Inten    --      1.9235                 0.0000                 0.0000

                     25                     26                     27
                     AG                     AU                     EG
 Frequencies --   1356.1116              1370.6425              1376.8359
 Red. masses --      1.3045                 1.3037                 1.4735
 Frc consts  --      1.4134                 1.4430                 1.6457
 IR Inten    --      0.0000                 0.0000                 0.0000

                     28                     29                     30
                     EG                     EU                     EU
 Frequencies --   1376.8359              1388.5756              1388.5756
 Red. masses --      1.4735                 1.4308                 1.4308
 Frc consts  --      1.6457                 1.6254                 1.6254
 IR Inten    --      0.0000                 0.2075                 0.2072

                     31                     32                     33
                     EG                     EG                     EU
 Frequencies --   1486.3523              1486.3523              1490.7138
 Red. masses --      1.0874                 1.0874                 1.0967
 Frc consts  --      1.4154                 1.4154                 1.4360
 IR Inten    --      0.0000                 0.0000                 5.4296

                     34                     35                     36
                     EU                     AU                     AG
 Frequencies --   1490.7138              1496.1273              1510.0645
 Red. masses --      1.0967                 1.0793                 1.0986
 Frc consts  --      1.4360                 1.4234                 1.4760
 IR Inten    --      5.4292                14.2111                 0.0000

                     37                     38                     39
                     EU                     EU                     AG
 Frequencies --   2997.6898              2997.6898              2998.5148
 Red. masses --      1.0701                 1.0701                 1.0741
 Frc consts  --      5.6655                 5.6655                 5.6902
 IR Inten    --     25.7645                25.7598                 0.0000

                     40                     41                     42
                     EG                     EG                     AU
 Frequencies --   3005.4150              3005.4150              3008.4481
 Red. masses --      1.0615                 1.0615                 1.0596
 Frc consts  --      5.6493                 5.6493                 5.6502
 IR Inten    --      0.0000                 0.0000                74.7283

                     43                     44                     45
                     EU                     EU                     EG
 Frequencies --   3047.8123              3047.8123              3049.7338
 Red. masses --      1.0911                 1.0911                 1.1023
 Frc consts  --      5.9714                 5.9714                 6.0403
 IR Inten    --    120.5699               120.5669                 0.0000

                     46                     47                     48
                     EG                     AG                     AU
 Frequencies --   3049.7338              3051.5453              3057.3955
 Red. masses --      1.1023                 1.0866                 1.1049
 Frc consts  --      6.0403                 5.9617                 6.0853
 IR Inten    --      0.0000                 0.0000               142.7620

 - Thermochemistry -
 -------------------
 Temperature   298.150 Kelvin.  Pressure   1.00000 Atm.
 Atom     1 has atomic number  6 and mass  12.00000

 Molecular mass:    84.09390 amu.
 Principal axes and moments of inertia in atomic units:
                           1         2         3
     Eigenvalues --   419.02735 419.02735 735.12743
           X            0.99965  -0.02631   0.00000
           Y            0.02631   0.99965   0.00000
           Z           -0.00000  -0.00000   1.00000
 This molecule is an oblate symmetric top.
 Rotational symmetry number  3.
 Rotational temperatures (Kelvin)      0.20670     0.20670     0.11782
 Rotational constants (GHZ):           4.30698     4.30698     2.45500
 Zero-point vibrational energy     445589.7 (Joules/Mol)
                                  106.49849 (Kcal/Mol)
 Warning -- explicit consideration of   6 degrees of freedom as
           vibrations may cause significant error
 Vibrational temperatures:    332.72   332.72   540.06   625.63   625.63
          (Kelvin)            752.77  1146.44  1146.44  1152.72  1244.53
                             1244.53  1323.74  1323.74  1490.13  1490.13
                             1504.11  1550.09  1576.34  1625.82  1703.88
                             1853.89  1853.89  1859.60  1859.60  1951.14
                             1972.05  1980.96  1980.96  1997.85  1997.85
                             2138.53  2138.53  2144.80  2144.80  2152.59
                             2172.65  4313.01  4313.01  4314.19  4324.12
                             4324.12  4328.49  4385.12  4385.12  4387.89
                             4387.89  4390.49  4398.91

 Zero-point correction=                           0.169716 (Hartree/Particle)
 Thermal correction to Energy=                    0.175445
 Thermal correction to Enthalpy=                  0.176389
 Thermal correction to Gibbs Free Energy=         0.141969
 Sum of electronic and zero-point Energies=           -235.802324
 Sum of electronic and thermal Energies=              -235.796595
 Sum of electronic and thermal Enthalpies=            -235.795651
 Sum of electronic and thermal Free Energies=         -235.830072

                     E (Thermal)             CV                S
                      KCal/Mol        Cal/Mol-Kelvin    Cal/Mol-Kelvin
 Total                  110.093             22.890             72.444
 Electronic               0.000              0.000              0.000
 Translational            0.889              2.981             39.202
 Rotational               0.889              2.981             24.176
 Vibrational            108.316             16.929              9.066
 Vibration     1          0.653              1.793              1.869
 Vibration     2          0.653              1.793              1.869
 Vibration     3          0.746              1.523              1.058
 Vibration     4          0.795              1.394              0.843
 Vibration     5          0.795              1.394              0.843
 Vibration     6          0.878              1.199              0.603

 Optimization completed.
    -- Stationary point found.
 Normal termination of Gaussian 16 at Thu Jun 16 09:12:10 2022.
