 Gaussian 16, Revision B.01,
 Gaussian 16:  ES64L-G16RevB.01 20-Dec-2017

 ----------------------------------
 # b3lyp/gen opt(tight,calcfc) freq
 ----------------------------------

 ---------------------------
 cycloheptane, B3LYP/pcseg-2
 ---------------------------
 Symbolic Z-matrix:
 Charge =  0 Multiplicity = 1

 SCF Done:  E(RB3LYP) =  -275.290173209     A.U. after   11 cycles
 SCF Done:  E(RB3LYP) =  -275.290174452     A.U. after    6 cycles
 SCF Done:  E(RB3LYP) =  -275.290174453     A.U. after    2 cycles
 Optimization completed.
    -- Stationary point found.
 Normal termination of Gaussian 16 at Thu Jun 16 21:07:58 2022.

 ------------------------------------------------------------------
 #N Geom=AllCheck Guess=TCheck SCRF=Check GenChk RB3LYP/ChkBas Freq
 ------------------------------------------------------------------

 Structure from the checkpoint file:  "/wrk/irikura/Gau-15588.chk"
 ---------------------------
 cycloheptane, B3LYP/pcseg-2
 ---------------------------
 Charge =  0 Multiplicity = 1

                         Standard orientation:
 ---------------------------------------------------------------------
 Center     Atomic      Atomic             Coordinates (Angstroms)
 Number     Number       Type             X           Y           Z
 ---------------------------------------------------------------------
      1          6           0       -0.000000    0.000000    1.772338
      2          6           0        0.704229    1.106962    0.967946
      3          6           0       -0.704229   -1.106962    0.967946
      4          6           0        0.000000    1.576064   -0.313728
      5          6           0       -0.000000   -1.576064   -0.313728
      6          6           0        0.302548    0.703601   -1.539609
      7          6           0       -0.302548   -0.703601   -1.539609
      8          1           0       -0.741795    0.456368    2.433395
      9          1           0        0.741795   -0.456368    2.433395
     10          1           0        1.710408    0.775430    0.695642
     11          1           0       -1.710408   -0.775430    0.695642
     12          1           0        0.849894    1.960533    1.634297
     13          1           0       -0.849894   -1.960533    1.634297
     14          1           0        0.331992    2.592782   -0.537989
     15          1           0       -0.331992   -2.592782   -0.537989
     16          1           0       -1.080977    1.643091   -0.153389
     17          1           0        1.080977   -1.643091   -0.153389
     18          1           0        1.390656    0.624471   -1.637829
     19          1           0       -1.390656   -0.624471   -1.637829
     20          1           0       -0.042548    1.221537   -2.438794
     21          1           0        0.042548   -1.221537   -2.438794
 ---------------------------------------------------------------------

 SCF Done:  E(RB3LYP) =  -275.290174453     A.U. after    1 cycles

 The electronic state is 1-A.
 Alpha  occ. eigenvalues --  -10.16051 -10.16050 -10.16020 -10.16006 -10.15999
 Alpha  occ. eigenvalues --  -10.15962 -10.15956  -0.82050  -0.75721  -0.75664
 Alpha  occ. eigenvalues --   -0.64555  -0.64504  -0.55998  -0.54369  -0.47737
 Alpha  occ. eigenvalues --   -0.45427  -0.44723  -0.42969  -0.40222  -0.39918
 Alpha  occ. eigenvalues --   -0.37507  -0.37184  -0.32862  -0.32787  -0.32092
 Alpha  occ. eigenvalues --   -0.30917  -0.30399  -0.30391
 Alpha virt. eigenvalues --    0.01242   0.02907   0.03198   0.03686   0.06287
 Alpha virt. eigenvalues --    0.06402   0.06878   0.07450   0.08121   0.09524
 Alpha virt. eigenvalues --    0.10611   0.10732   0.11321   0.11411   0.14698

 Mulliken charges:
               1
     1  C   -0.031940
     2  C   -0.052895
     3  C   -0.052895
     4  C   -0.044798
     5  C   -0.044798
     6  C   -0.035034
     7  C   -0.035034
     8  H    0.020923
     9  H    0.020923
    10  H    0.025652
    11  H    0.025652
    12  H    0.021195
    13  H    0.021195
    14  H    0.020105
    15  H    0.020105
    16  H    0.024540
    17  H    0.024540
    18  H    0.015391
    19  H    0.015391
    20  H    0.020892
    21  H    0.020892
 Sum of Mulliken charges =  -0.00000

 Dipole moment (field-independent basis, Debye):
    X=             -0.0000    Y=             -0.0000    Z=             -0.0112  Tot=              0.0112
 Quadrupole moment (field-independent basis, Debye-Ang):
   XX=            -47.1584   YY=            -47.2755   ZZ=            -47.7427
   XY=             -0.1854   XZ=              0.0000   YZ=              0.0000

  Exact polarizability:  74.341   3.067  84.667  -0.000   0.000  87.572
 Approx polarizability: 114.060  -0.132 112.616  -0.000  -0.000 113.661

                      1                      2                      3
                      B                      A                      B
 Frequencies --    109.0498               164.3832               275.7835
 Red. masses --      1.8148                 1.9304                 1.7123
 Frc consts  --      0.0127                 0.0307                 0.0767
 IR Inten    --      0.0282                 0.0005                 0.0653

                      4                      5                      6
                      A                      B                      A
 Frequencies --    311.5781               332.8830               390.3180
 Red. masses --      2.3480                 2.9728                 2.1615
 Frc consts  --      0.1343                 0.1941                 0.1940
 IR Inten    --      0.0020                 0.0232                 0.0012

                      7                      8                      9
                      B                      A                      A
 Frequencies --    489.2131               521.6469               730.6551
 Red. masses --      1.4518                 1.8504                 2.9059
 Frc consts  --      0.2047                 0.2967                 0.9140
 IR Inten    --      0.3525                 0.1545                 0.0064

                     10                     11                     12
                      B                      B                      A
 Frequencies --    739.9442               812.7064               827.8433
 Red. masses --      1.2503                 1.9778                 2.7485
 Frc consts  --      0.4033                 0.7696                 1.1098
 IR Inten    --      1.2436                 2.9897                 1.5333

                     13                     14                     15
                      A                      B                      A
 Frequencies --    853.2167               865.7875               961.0075
 Red. masses --      1.4613                 1.5879                 2.0075
 Frc consts  --      0.6268                 0.7013                 1.0923
 IR Inten    --      0.4668                 0.4289                 1.5002

                     16                     17                     18
                      B                      B                      A
 Frequencies --    965.4460              1009.3578              1015.1149
 Red. masses --      2.2503                 2.1425                 2.2400
 Frc consts  --      1.2358                 1.2861                 1.3600
 IR Inten    --      2.7368                 0.4274                 0.0234

                     19                     20                     21
                      B                      A                      A
 Frequencies --   1034.3057              1054.4687              1118.2092
 Red. masses --      1.3331                 1.3615                 2.0807
 Frc consts  --      0.8403                 0.8920                 1.5329
 IR Inten    --      0.5855                 0.2897                 0.0262

                     22                     23                     24
                      B                      B                      A
 Frequencies --   1134.0267              1208.1492              1219.6430
 Red. masses --      2.2376                 1.5415                 1.2338
 Frc consts  --      1.6954                 1.3256                 1.0813
 IR Inten    --      0.0842                 1.3294                 0.0086

                     25                     26                     27
                      B                      A                      A
 Frequencies --   1228.8495              1233.8378              1308.8175
 Red. masses --      1.1971                 1.3978                 1.1850
 Frc consts  --      1.0651                 1.2537                 1.1960
 IR Inten    --      0.7678                 0.7598                 1.7793

                     28                     29                     30
                      B                      A                      B
 Frequencies --   1310.1928              1316.5353              1365.1410
 Red. masses --      1.1658                 1.1182                 1.3187
 Frc consts  --      1.1790                 1.1419                 1.4480
 IR Inten    --      1.0384                 0.0451                 0.2002

                     31                     32                     33
                      B                      A                      B
 Frequencies --   1377.1682              1377.3473              1384.7155
 Red. masses --      1.3261                 1.3549                 1.4923
 Frc consts  --      1.4818                 1.5144                 1.6858
 IR Inten    --      0.3633                 0.2109                 0.0021

                     34                     35                     36
                      A                      A                      B
 Frequencies --   1393.4392              1399.6188              1400.8158
 Red. masses --      1.3875                 1.3941                 1.3555
 Frc consts  --      1.5873                 1.6090                 1.5672
 IR Inten    --      1.0800                 1.0739                 2.1221

                     37                     38                     39
                      B                      A                      B
 Frequencies --   1484.1125              1485.4742              1488.7209
 Red. masses --      1.0844                 1.0807                 1.0888
 Frc consts  --      1.4072                 1.4051                 1.4218
 IR Inten    --      1.1133                 0.4954                 8.0167

                     40                     41                     42
                      A                      A                      B
 Frequencies --   1489.7255              1494.9722              1504.8500
 Red. masses --      1.0861                 1.0948                 1.0802
 Frc consts  --      1.4201                 1.4417                 1.4412
 IR Inten    --      0.1268                 6.2010                18.7278

                     43                     44                     45
                      A                      A                      B
 Frequencies --   1509.9129              2996.6546              2999.1110
 Red. masses --      1.0915                 1.0713                 1.0622
 Frc consts  --      1.4661                 5.6678                 5.6289
 IR Inten    --      0.5155                11.1640                22.1711

                     46                     47                     48
                      B                      A                      A
 Frequencies --   3002.7331              3006.3406              3008.7615
 Red. masses --      1.0689                 1.0601                 1.0626
 Frc consts  --      5.6783                 5.6450                 5.6676
 IR Inten    --     15.4626                10.5852                 0.7006

                     49                     50                     51
                      B                      A                      B
 Frequencies --   3011.2782              3018.3492              3030.8261
 Red. masses --      1.0646                 1.0676                 1.0966
 Frc consts  --      5.6877                 5.7307                 5.9352
 IR Inten    --     34.0311                18.8759                10.0258

                     52                     53                     54
                      A                      B                      A
 Frequencies --   3036.4235              3041.7103              3041.8085
 Red. masses --      1.0918                 1.0975                 1.1025
 Frc consts  --      5.9311                 5.9825                 6.0100
 IR Inten    --     82.1009                48.9695                42.6541

                     55                     56                     57
                      B                      A                      B
 Frequencies --   3047.6508              3051.3926              3058.5807
 Red. masses --      1.0984                 1.0911                 1.1027
 Frc consts  --      6.0109                 5.9855                 6.0776
 IR Inten    --    125.5028                 5.7748               132.4100

 - Thermochemistry -
 -------------------
 Temperature   298.150 Kelvin.  Pressure   1.00000 Atm.
 Atom     1 has atomic number  6 and mass  12.00000

 Molecular mass:    98.10955 amu.
 Principal axes and moments of inertia in atomic units:
                           1         2         3
     Eigenvalues --   578.90895 633.044941058.27094
           X            0.00000   0.25135   0.96790
           Y            0.00000   0.96790  -0.25135
           Z            1.00000   0.00000   0.00000
 This molecule is an asymmetric top.
 Rotational symmetry number  2.
 Warning -- assumption of classical behavior for rotation
           may cause significant error
 Rotational temperatures (Kelvin)      0.14962     0.13682     0.08184
 Rotational constants (GHZ):           3.11749     2.85089     1.70537
 Zero-point vibrational energy     520678.2 (Joules/Mol)
                                  124.44509 (Kcal/Mol)
 Warning -- explicit consideration of   8 degrees of freedom as
           vibrations may cause significant error
 Vibrational temperatures:    156.90   236.51   396.79   448.29   478.94
          (Kelvin)            561.58   703.87   750.53  1051.25  1064.61
                             1169.30  1191.08  1227.59  1245.68  1382.68
                             1389.06  1452.24  1460.52  1488.14  1517.15
                             1608.85  1631.61  1738.26  1754.79  1768.04
                             1775.22  1883.10  1885.08  1894.20  1964.13
                             1981.44  1981.70  1992.30  2004.85  2013.74
                             2015.46  2135.31  2137.27  2141.94  2143.38
                             2150.93  2165.14  2172.43  4311.52  4315.05
                             4320.26  4325.45  4328.94  4332.56  4342.73
                             4360.68  4368.74  4376.34  4376.48  4384.89
                             4390.27  4400.62

 Zero-point correction=                           0.198316 (Hartree/Particle)
 Thermal correction to Energy=                    0.205398
 Thermal correction to Enthalpy=                  0.206342
 Thermal correction to Gibbs Free Energy=         0.168176
 Sum of electronic and zero-point Energies=           -275.091859
 Sum of electronic and thermal Energies=              -275.084776
 Sum of electronic and thermal Enthalpies=            -275.083832
 Sum of electronic and thermal Free Energies=         -275.121998

                     E (Thermal)             CV                S
                      KCal/Mol        Cal/Mol-Kelvin    Cal/Mol-Kelvin
 Total                  128.889             27.867             80.327
 Electronic               0.000              0.000              0.000
 Translational            0.889              2.981             39.661
 Rotational               0.889              2.981             26.075
 Vibrational            127.112             21.905             14.591
 Vibration     1          0.606              1.942              3.286
 Vibration     2          0.623              1.886              2.499
 Vibration     3          0.677              1.718              1.560
 Vibration     4          0.700              1.652              1.354
 Vibration     5          0.715              1.610              1.246
 Vibration     6          0.758              1.491              0.999
 Vibration     7          0.845              1.274              0.686
 Vibration     8          0.877              1.202              0.606

 Optimization completed.
    -- Stationary point found.
 Normal termination of Gaussian 16 at Thu Jun 16 21:19:08 2022.
