 Gaussian 16, Revision B.01,

 ---------------------------------------
 # b3lyp/gen opt freq CPHF(Grid=OneStep)
 ---------------------------------------

 ------------------------------
 cycloheptadiene, B3LYP/pcseg-2
 ------------------------------
 Symbolic Z-matrix:
 Charge =  0 Multiplicity = 1

 SCF Done:  E(RB3LYP) =  -272.838335979     A.U. after   12 cycles
 Optimization completed.
    -- Stationary point found.
 Normal termination of Gaussian 16 at Wed Sep 27 21:39:20 2023.

 ------------------------------------------------------------------
 #N Geom=AllCheck Guess=TCheck SCRF=Check GenChk RB3LYP/ChkBas Freq
 ------------------------------------------------------------------

 Structure from the checkpoint file:  "cyc7diene.chk"
 ------------------------------
 cycloheptadiene, B3LYP/pcseg-2
 ------------------------------
 Charge =  0 Multiplicity = 1

 SCF Done:  E(RB3LYP) =  -272.838335979     A.U. after    1 cycles

  Exact polarizability:  58.329  -1.846  90.079  -0.000  -0.000  98.725
 Approx polarizability:  89.840   0.582 130.156  -0.000   0.000 152.027

                      1                      2                      3
                     A"                     A'                     A'
 Frequencies --     45.9677               242.3401               348.6659
 Red. masses --      1.9515                 2.2635                 1.7540
 Frc consts  --      0.0024                 0.0783                 0.1256
 IR Inten    --      0.2494                 0.1075                 0.1216

                      4                      5                      6
                     A"                     A'                     A"
 Frequencies --    370.1811               386.1883               523.9784
 Red. masses --      4.3927                 3.6040                 2.2952
 Frc consts  --      0.3547                 0.3167                 0.3713
 IR Inten    --      0.3468                 0.6617                 0.6582

                      7                      8                      9
                     A'                     A'                     A'
 Frequencies --    586.6892               698.4722               766.0386
 Red. masses --      1.6183                 1.3140                 3.6438
 Frc consts  --      0.3282                 0.3777                 1.2598
 IR Inten    --     15.9762                55.3800                 0.5004

                     10                     11                     12
                     A"                     A"                     A"
 Frequencies --    776.8473               852.2652               879.3750
 Red. masses --      1.5053                 1.8319                 3.0301
 Frc consts  --      0.5352                 0.7840                 1.3806
 IR Inten    --      0.0414                 9.4800                 0.7148

                     13                     14                     15
                     A'                     A"                     A'
 Frequencies --    887.3556               914.4587               966.3240
 Red. masses --      2.9627                 2.6037                 2.2438
 Frc consts  --      1.3744                 1.2828                 1.2345
 IR Inten    --      0.1372                 6.9444                 4.2442

                     16                     17                     18
                     A'                     A"                     A'
 Frequencies --   1008.4078              1018.5032              1061.1215
 Red. masses --      1.2330                 1.2573                 1.8538
 Frc consts  --      0.7387                 0.7684                 1.2298
 IR Inten    --      0.7637                 0.1056                 3.6355

                     19                     20                     21
                     A'                     A"                     A"
 Frequencies --   1076.0015              1090.1643              1176.2406
 Red. masses --      2.1545                 1.9204                 1.1921
 Frc consts  --      1.4697                 1.3447                 0.9718
 IR Inten    --      4.5882                 3.5874                 3.7428

                     22                     23                     24
                     A"                     A'                     A"
 Frequencies --   1250.2858              1285.0279              1286.8382
 Red. masses --      1.1633                 1.0787                 1.1479
 Frc consts  --      1.0714                 1.0495                 1.1200
 IR Inten    --      0.6996                 1.3119                 1.0031

                     25                     26                     27
                     A'                     A"                     A"
 Frequencies --   1290.3822              1375.4443              1384.5071
 Red. masses --      1.1437                 1.4669                 1.2974
 Frc consts  --      1.1220                 1.6351                 1.4653
 IR Inten    --      3.4011                 3.2952                 1.2785

                     28                     29                     30
                     A'                     A"                     A'
 Frequencies --   1393.0064              1437.7545              1465.8782
 Red. masses --      1.5584                 1.3582                 1.5152
 Frc consts  --      1.7817                 1.6541                 1.9184
 IR Inten    --      0.0946                 0.0841                 0.6472

                     31                     32                     33
                     A"                     A'                     A'
 Frequencies --   1467.3433              1477.2217              1491.6536
 Red. masses --      1.0891                 1.0898                 1.1123
 Frc consts  --      1.3816                 1.4011                 1.4582
 IR Inten    --      4.1410                11.1879                 5.1058

                     34                     35                     36
                     A'                     A"                     A"
 Frequencies --   1667.8984              1704.7868              2986.3619
 Red. masses --      7.7137                 5.2022                 1.0707
 Frc consts  --     12.6431                 8.9079                 5.6260
 IR Inten    --      8.2391                 0.3994                10.1060

                     37                     38                     39
                     A'                     A'                     A"
 Frequencies --   2993.2178              3018.8029              3029.9967
 Red. masses --      1.0699                 1.0705                 1.0891
 Frc consts  --      5.6479                 5.7478                 5.8914
 IR Inten    --     31.6307                 2.6921                30.8433

                     40                     41                     42
                     A'                     A'                     A"
 Frequencies --   3039.4589              3061.9602              3122.5661
 Red. masses --      1.0789                 1.1035                 1.0826
 Frc consts  --      5.8725                 6.0957                 6.2193
 IR Inten    --     59.6756                35.0547                 0.4260

                     43                     44                     45
                     A'                     A"                     A'
 Frequencies --   3130.7113              3145.4984              3157.0307
 Red. masses --      1.0849                 1.0923                 1.0932
 Frc consts  --      6.2650                 6.3674                 6.4198
 IR Inten    --      2.5212                46.8497                31.9320

 - Thermochemistry -
 -------------------
 Temperature   298.150 Kelvin.  Pressure   1.00000 Atm.
 Atom     1 has atomic number  6 and mass  12.00000

 Molecular mass:    94.07825 amu.
 Principal axes and moments of inertia in atomic units:
                           1         2         3
     Eigenvalues --   527.16876 546.137751006.38006
           X            0.00000  -0.13674   0.99061
           Y            0.00000   0.99061   0.13674
           Z            1.00000  -0.00000   0.00000
 This molecule is an asymmetric top.
 Rotational symmetry number  1.
 Warning -- assumption of classical behavior for rotation
           may cause significant error
 Rotational temperatures (Kelvin)      0.16430     0.15859     0.08606
 Rotational constants (GHZ):           3.42346     3.30455     1.79330
 Zero-point vibrational energy     396796.7 (Joules/Mol)
                                   94.83668 (Kcal/Mol)
 Warning -- explicit consideration of   7 degrees of freedom as
           vibrations may cause significant error
 Vibrational temperatures:     66.14   348.67   501.65   532.61   555.64
          (Kelvin)            753.89   844.11  1004.95  1102.16  1117.71
                             1226.22  1265.22  1276.71  1315.70  1390.32
                             1450.87  1465.40  1526.72  1548.13  1568.50
                             1692.35  1798.88  1848.87  1851.47  1856.57
                             1978.96  1992.00  2004.23  2068.61  2109.07
                             2111.18  2125.39  2146.16  2399.73  2452.81
                             4296.71  4306.57  4343.38  4359.49  4373.10
                             4405.48  4492.68  4504.40  4525.67  4542.26

 Zero-point correction=                           0.151132 (Hartree/Particle)
 Thermal correction to Energy=                    0.157541
 Thermal correction to Enthalpy=                  0.158485
 Thermal correction to Gibbs Free Energy=         0.120488
 Sum of electronic and zero-point Energies=           -272.687204
 Sum of electronic and thermal Energies=              -272.680795
 Sum of electronic and thermal Enthalpies=            -272.679851
 Sum of electronic and thermal Free Energies=         -272.717848

                     E (Thermal)             CV                S
                      KCal/Mol        Cal/Mol-Kelvin    Cal/Mol-Kelvin
 Total                   98.859             24.647             79.971
 Electronic               0.000              0.000              0.000
 Translational            0.889              2.981             39.536
 Rotational               0.889              2.981             27.163
 Vibrational             97.081             18.685             13.272
 Vibration     1          0.595              1.979              4.984
 Vibration     2          0.659              1.775              1.786
 Vibration     3          0.726              1.578              1.172
 Vibration     4          0.742              1.533              1.079
 Vibration     5          0.755              1.500              1.015
 Vibration     6          0.879              1.197              0.601
 Vibration     7          0.944              1.060              0.473

 Optimization completed.
    -- Stationary point found.
 Normal termination of Gaussian 16 at Wed Sep 27 22:05:55 2023.
 Gaussian 16:  ES64L-G16RevB.01 20-Dec-2017

 ---------------------------------
 # rohf/gen geom=check guess=check
 ---------------------------------

 ---------------------------------
 cycloheptadiene, ROHF/cc-pVTZ-F12
 ---------------------------------
 Structure from the checkpoint file:  "cyc7diene.chk"
 Charge =  0 Multiplicity = 1

                         Standard orientation:
 ---------------------------------------------------------------------
 Center     Atomic      Atomic             Coordinates (Angstroms)
 Number     Number       Type             X           Y           Z
 ---------------------------------------------------------------------
      1          6           0        0.623521   -1.413279   -0.000000
      2          6           0       -0.130314    1.489433    0.730239
      3          6           0       -0.130314    1.489433   -0.730239
      4          6           0       -0.130314    0.465201    1.593417
      5          6           0       -0.130314    0.465201   -1.593417
      6          6           0       -0.080054   -1.004805    1.296845
      7          6           0       -0.080054   -1.004805   -1.296845
      8          1           0        0.729499   -2.500505   -0.000000
      9          1           0        1.636140   -1.003318   -0.000000
     10          1           0       -0.162444    2.481585    1.167435
     11          1           0       -0.162444    2.481585   -1.167435
     12          1           0       -0.170402    0.718422    2.647614
     13          1           0       -0.170402    0.718422   -2.647614
     14          1           0        0.423701   -1.499418    2.132172
     15          1           0       -1.100142   -1.407810    1.303850
     16          1           0        0.423701   -1.499418   -2.132172
     17          1           0       -1.100142   -1.407810   -1.303850
 ---------------------------------------------------------------------

 SCF Done:  E(ROHF) =  -270.969873404     A.U. after   11 cycles

 The electronic state is 1-A'.
 Alpha  occ. eigenvalues --  -11.22701 -11.22700 -11.22428 -11.22424 -11.22219
 Alpha  occ. eigenvalues --  -11.22139 -11.22067  -1.11621  -1.03634  -1.03362
 Alpha  occ. eigenvalues --   -0.90368  -0.86765  -0.75695  -0.68085  -0.67802
 Alpha  occ. eigenvalues --   -0.63086  -0.59481  -0.57840  -0.56836  -0.53325
 Alpha  occ. eigenvalues --   -0.49703  -0.48872  -0.46382  -0.45364  -0.41586
 Alpha  occ. eigenvalues --   -0.30341
 Alpha virt. eigenvalues --    0.04743   0.05079   0.05179   0.05677   0.06772
 Alpha virt. eigenvalues --    0.07040   0.08899   0.09118   0.09458   0.09616
 Alpha virt. eigenvalues --    0.09993   0.10654   0.12099   0.12642   0.12650

 Mulliken charges and spin densities:
               1          2
     1  C   -0.135309   0.000000
     2  C   -0.170034   0.000000
     3  C   -0.170034   0.000000
     4  C   -0.156318   0.000000
     5  C   -0.156318   0.000000
     6  C   -0.106983   0.000000
     7  C   -0.106983   0.000000
     8  H    0.076079   0.000000
     9  H    0.084009   0.000000
    10  H    0.127364   0.000000
    11  H    0.127364   0.000000
    12  H    0.134352   0.000000
    13  H    0.134352   0.000000
    14  H    0.075983   0.000000
    15  H    0.083248   0.000000
    16  H    0.075983   0.000000
    17  H    0.083248   0.000000
 Sum of Mulliken charges =  -0.00000   0.00000

 Dipole moment (field-independent basis, Debye):
    X=             -0.0119    Y=             -0.8065    Z=             -0.0000  Tot=              0.8065
 Quadrupole moment (field-independent basis, Debye-Ang):
   XX=            -46.9675   YY=            -42.0336   ZZ=            -41.8533
   XY=             -0.0450   XZ=             -0.0000   YZ=              0.0000

 Normal termination of Gaussian 16 at Wed Sep 27 22:13:32 2023.
