 Gaussian 16, Revision B.01,

 ---------------------------------------
 # b3lyp/gen opt freq CPHF(Grid=OneStep)
 ---------------------------------------

 ---------------------------
 cycloheptane, B3LYP/pcseg-2
 ---------------------------
 Symbolic Z-matrix:
 Charge =  0 Multiplicity = 1

 SCF Done:  E(RB3LYP) =  -275.290174453     A.U. after   11 cycles
 Optimization completed.
    -- Stationary point found.
 Normal termination of Gaussian 16 at Thu Sep 28 21:21:55 2023.

 ------------------------------------------------------------------
 #N Geom=AllCheck Guess=TCheck SCRF=Check GenChk RB3LYP/ChkBas Freq
 ------------------------------------------------------------------

 Structure from the checkpoint file:  "cyc7.chk"
 ---------------------------
 cycloheptane, B3LYP/pcseg-2
 ---------------------------
 Charge =  0 Multiplicity = 1

 SCF Done:  E(RB3LYP) =  -275.290174453     A.U. after    1 cycles

  Exact polarizability:  74.341   3.067  84.668  -0.000   0.000  87.573
 Approx polarizability: 114.060  -0.132 112.616   0.000  -0.000 113.661

                      1                      2                      3
                      B                      A                      B
 Frequencies --    109.0538               164.3810               275.7899
 Red. masses --      1.8148                 1.9304                 1.7122
 Frc consts  --      0.0127                 0.0307                 0.0767
 IR Inten    --      0.0282                 0.0005                 0.0651

                      4                      5                      6
                      A                      B                      A
 Frequencies --    311.5797               332.8813               390.3163
 Red. masses --      2.3480                 2.9729                 2.1615
 Frc consts  --      0.1343                 0.1941                 0.1940
 IR Inten    --      0.0020                 0.0232                 0.0012

                      7                      8                      9
                      B                      A                      A
 Frequencies --    489.2154               521.6445               730.6538
 Red. masses --      1.4518                 1.8504                 2.9059
 Frc consts  --      0.2047                 0.2967                 0.9140
 IR Inten    --      0.3524                 0.1545                 0.0063

                     10                     11                     12
                      B                      B                      A
 Frequencies --    739.9462               812.7078               827.8425
 Red. masses --      1.2503                 1.9778                 2.7485
 Frc consts  --      0.4033                 0.7697                 1.1098
 IR Inten    --      1.2434                 2.9897                 1.5341

                     13                     14                     15
                      A                      B                      A
 Frequencies --    853.2158               865.7964               961.0022
 Red. masses --      1.4613                 1.5879                 2.0074
 Frc consts  --      0.6268                 0.7013                 1.0923
 IR Inten    --      0.4667                 0.4285                 1.5004

                     16                     17                     18
                      B                      B                      A
 Frequencies --    965.4480              1009.3587              1015.1149
 Red. masses --      2.2503                 2.1425                 2.2400
 Frc consts  --      1.2358                 1.2861                 1.3600
 IR Inten    --      2.7363                 0.4275                 0.0234

                     19                     20                     21
                      B                      A                      A
 Frequencies --   1034.3042              1054.4701              1118.2079
 Red. masses --      1.3331                 1.3615                 2.0807
 Frc consts  --      0.8403                 0.8920                 1.5329
 IR Inten    --      0.5856                 0.2896                 0.0262

                     22                     23                     24
                      B                      B                      A
 Frequencies --   1134.0255              1208.1464              1219.6427
 Red. masses --      2.2376                 1.5415                 1.2337
 Frc consts  --      1.6954                 1.3256                 1.0813
 IR Inten    --      0.0842                 1.3283                 0.0086

                     25                     26                     27
                      B                      A                      A
 Frequencies --   1228.8472              1233.8358              1308.8153
 Red. masses --      1.1971                 1.3978                 1.1850
 Frc consts  --      1.0651                 1.2537                 1.1960
 IR Inten    --      0.7672                 0.7597                 1.7792

                     28                     29                     30
                      B                      A                      B
 Frequencies --   1310.1942              1316.5324              1365.1402
 Red. masses --      1.1658                 1.1182                 1.3187
 Frc consts  --      1.1791                 1.1419                 1.4479
 IR Inten    --      1.0373                 0.0450                 0.2001

                     31                     32                     33
                      B                      A                      B
 Frequencies --   1377.1651              1377.3468              1384.7154
 Red. masses --      1.3261                 1.3549                 1.4923
 Frc consts  --      1.4818                 1.5144                 1.6859
 IR Inten    --      0.3628                 0.2109                 0.0022

                     34                     35                     36
                      A                      A                      B
 Frequencies --   1393.4393              1399.6156              1400.8162
 Red. masses --      1.3875                 1.3941                 1.3555
 Frc consts  --      1.5873                 1.6090                 1.5672
 IR Inten    --      1.0803                 1.0732                 2.1217

                     37                     38                     39
                      B                      A                      B
 Frequencies --   1484.1037              1485.4698              1488.7042
 Red. masses --      1.0844                 1.0807                 1.0888
 Frc consts  --      1.4072                 1.4051                 1.4217
 IR Inten    --      1.1131                 0.4981                 8.0262

                     40                     41                     42
                      A                      A                      B
 Frequencies --   1489.7128              1494.9604              1504.8476
 Red. masses --      1.0861                 1.0948                 1.0802
 Frc consts  --      1.4201                 1.4416                 1.4412
 IR Inten    --      0.1257                 6.2058                18.7283

                     43                     44                     45
                      A                      A                      B
 Frequencies --   1509.9080              2996.6392              2999.0984
 Red. masses --      1.0915                 1.0713                 1.0622
 Frc consts  --      1.4661                 5.6678                 5.6289
 IR Inten    --      0.5145                11.1484                22.1666

                     46                     47                     48
                      B                      A                      A
 Frequencies --   3002.7113              3006.3307              3008.7627
 Red. masses --      1.0689                 1.0601                 1.0626
 Frc consts  --      5.6782                 5.6450                 5.6676
 IR Inten    --     15.4045                10.5884                 0.7119

                     49                     50                     51
                      B                      A                      B
 Frequencies --   3011.2766              3018.3417              3030.8230
 Red. masses --      1.0646                 1.0676                 1.0966
 Frc consts  --      5.6877                 5.7307                 5.9351
 IR Inten    --     34.0326                18.8457                10.0406

                     52                     53                     54
                      A                      B                      A
 Frequencies --   3036.4184              3041.7029              3041.7936
 Red. masses --      1.0918                 1.0975                 1.1025
 Frc consts  --      5.9311                 5.9825                 6.0099
 IR Inten    --     82.0394                48.9313                42.7468

                     55                     56                     57
                      B                      A                      B
 Frequencies --   3047.6483              3051.3912              3058.5778
 Red. masses --      1.0984                 1.0911                 1.1027
 Frc consts  --      6.0109                 5.9855                 6.0776
 IR Inten    --    125.5311                 5.7729               132.4610

 - Thermochemistry -
 -------------------
 Temperature   298.150 Kelvin.  Pressure   1.00000 Atm.
 Atom     1 has atomic number  6 and mass  12.00000

 Molecular mass:    98.10955 amu.
 Principal axes and moments of inertia in atomic units:
                           1         2         3
     Eigenvalues --   578.90887 633.044811058.27071
           X            0.00000   0.25135   0.96790
           Y            0.00000   0.96790  -0.25135
           Z            1.00000  -0.00000   0.00000
 This molecule is an asymmetric top.
 Rotational symmetry number  2.
 Warning -- assumption of classical behavior for rotation
           may cause significant error
 Rotational temperatures (Kelvin)      0.14962     0.13682     0.08184
 Rotational constants (GHZ):           3.11749     2.85089     1.70537
 Zero-point vibrational energy     520677.2 (Joules/Mol)
                                  124.44484 (Kcal/Mol)
 Warning -- explicit consideration of   8 degrees of freedom as
           vibrations may cause significant error
 Vibrational temperatures:    156.90   236.51   396.80   448.29   478.94
          (Kelvin)            561.58   703.87   750.53  1051.25  1064.62
                             1169.31  1191.08  1227.59  1245.69  1382.67
                             1389.06  1452.24  1460.52  1488.13  1517.15
                             1608.85  1631.61  1738.25  1754.79  1768.04
                             1775.21  1883.09  1885.08  1894.20  1964.13
                             1981.43  1981.69  1992.30  2004.85  2013.73
                             2015.46  2135.29  2137.26  2141.91  2143.36
                             2150.91  2165.14  2172.42  4311.50  4315.03
                             4320.23  4325.44  4328.94  4332.56  4342.72
                             4360.68  4368.73  4376.33  4376.46  4384.89
                             4390.27  4400.61

 Zero-point correction=                           0.198315 (Hartree/Particle)
 Thermal correction to Energy=                    0.205398
 Thermal correction to Enthalpy=                  0.206342
 Thermal correction to Gibbs Free Energy=         0.168176
 Sum of electronic and zero-point Energies=           -275.091859
 Sum of electronic and thermal Energies=              -275.084777
 Sum of electronic and thermal Enthalpies=            -275.083833
 Sum of electronic and thermal Free Energies=         -275.121998

                     E (Thermal)             CV                S
                      KCal/Mol        Cal/Mol-Kelvin    Cal/Mol-Kelvin
 Total                  128.889             27.867             80.327
 Electronic               0.000              0.000              0.000
 Translational            0.889              2.981             39.661
 Rotational               0.889              2.981             26.075
 Vibrational            127.112             21.905             14.591
 Vibration     1          0.606              1.942              3.286
 Vibration     2          0.623              1.886              2.499
 Vibration     3          0.677              1.718              1.560
 Vibration     4          0.700              1.652              1.354
 Vibration     5          0.715              1.610              1.246
 Vibration     6          0.758              1.491              0.999
 Vibration     7          0.845              1.274              0.686
 Vibration     8          0.877              1.202              0.606

 Optimization completed.
    -- Stationary point found.
 Normal termination of Gaussian 16 at Thu Sep 28 22:03:19 2023.
 Gaussian 16:  ES64L-G16RevB.01 20-Dec-2017

 ---------------------------------
 # rohf/gen geom=check guess=check
 ---------------------------------

 ------------------------------
 cycloheptane, ROHF/cc-pVTZ-F12
 ------------------------------
 Structure from the checkpoint file:  "cyc7.chk"
 Charge =  0 Multiplicity = 1

                         Standard orientation:
 ---------------------------------------------------------------------
 Center     Atomic      Atomic             Coordinates (Angstroms)
 Number     Number       Type             X           Y           Z
 ---------------------------------------------------------------------
      1          6           0       -0.000000    0.000000    1.772338
      2          6           0        0.704229    1.106962    0.967946
      3          6           0       -0.704229   -1.106962    0.967946
      4          6           0        0.000000    1.576064   -0.313728
      5          6           0       -0.000000   -1.576064   -0.313728
      6          6           0        0.302548    0.703601   -1.539609
      7          6           0       -0.302548   -0.703601   -1.539609
      8          1           0       -0.741795    0.456368    2.433395
      9          1           0        0.741795   -0.456368    2.433395
     10          1           0        1.710408    0.775430    0.695642
     11          1           0       -1.710408   -0.775430    0.695642
     12          1           0        0.849894    1.960533    1.634297
     13          1           0       -0.849894   -1.960533    1.634297
     14          1           0        0.331992    2.592782   -0.537989
     15          1           0       -0.331992   -2.592782   -0.537989
     16          1           0       -1.080977    1.643091   -0.153389
     17          1           0        1.080977   -1.643091   -0.153389
     18          1           0        1.390656    0.624471   -1.637829
     19          1           0       -1.390656   -0.624471   -1.637829
     20          1           0       -0.042548    1.221537   -2.438794
     21          1           0        0.042548   -1.221537   -2.438794
 ---------------------------------------------------------------------

 SCF Done:  E(ROHF) =  -273.336718141     A.U. after    9 cycles

 The electronic state is 1-A.
 Alpha  occ. eigenvalues --  -11.21115 -11.21101 -11.21078 -11.21052 -11.21014
 Alpha  occ. eigenvalues --  -11.20988 -11.20971  -1.10116  -1.02199  -1.02133
 Alpha  occ. eigenvalues --   -0.87789  -0.87730  -0.76370  -0.74602  -0.64355
 Alpha  occ. eigenvalues --   -0.61863  -0.60771  -0.58617  -0.55387  -0.54912
 Alpha  occ. eigenvalues --   -0.51944  -0.51468  -0.46070  -0.45902  -0.45402
 Alpha  occ. eigenvalues --   -0.44012  -0.43263  -0.43206
 Alpha virt. eigenvalues --    0.04708   0.04942   0.05097   0.05136   0.06665
 Alpha virt. eigenvalues --    0.06716   0.07008   0.08643   0.08769   0.10450
 Alpha virt. eigenvalues --    0.10738   0.11305   0.11464   0.11546   0.12227

 Mulliken charges and spin densities:
               1          2
     1  C   -0.203827   0.000000
     2  C   -0.137212   0.000000
     3  C   -0.137212   0.000000
     4  C   -0.123038   0.000000
     5  C   -0.123038   0.000000
     6  C   -0.144400   0.000000
     7  C   -0.144400   0.000000
     8  H    0.076861   0.000000
     9  H    0.076861   0.000000
    10  H    0.075244   0.000000
    11  H    0.075244   0.000000
    12  H    0.075056   0.000000
    13  H    0.075056   0.000000
    14  H    0.071048   0.000000
    15  H    0.071048   0.000000
    16  H    0.068053   0.000000
    17  H    0.068053   0.000000
    18  H    0.073912   0.000000
    19  H    0.073912   0.000000
    20  H    0.066390   0.000000
    21  H    0.066390   0.000000
 Sum of Mulliken charges =  -0.00000   0.00000

 Dipole moment (field-independent basis, Debye):
    X=             -0.0000    Y=              0.0000    Z=             -0.0063  Tot=              0.0063
 Quadrupole moment (field-independent basis, Debye-Ang):
   XX=            -46.9296   YY=            -47.2095   ZZ=            -47.6802
   XY=             -0.2098   XZ=             -0.0000   YZ=              0.0000

 Normal termination of Gaussian 16 at Thu Sep 28 22:13:31 2023.
