 Gaussian 16, Revision B.01,
 Gaussian 16:  ES64L-G16RevB.01 20-Dec-2017

 --------------------
 # opt freq b3lyp/gen
 --------------------

 -------------------------------
 cycloheptatriene, B3LYP/pcseg-2
 -------------------------------
 Symbolic Z-matrix:
 Charge =  0 Multiplicity = 1

 SCF Done:  E(RB3LYP) =  -271.617070803     A.U. after   12 cycles
 SCF Done:  E(RB3LYP) =  -271.617173764     A.U. after    8 cycles
 SCF Done:  E(RB3LYP) =  -271.617174989     A.U. after    7 cycles
 Optimization completed.
    -- Stationary point found.
 Normal termination of Gaussian 16 at Thu Jun 16 16:40:27 2022.

 ------------------------------------------------------------------
 #N Geom=AllCheck Guess=TCheck SCRF=Check GenChk RB3LYP/ChkBas Freq
 ------------------------------------------------------------------

 Structure from the checkpoint file:  "/wrk/irikura/Gau-6014.chk"
 -------------------------------
 cycloheptatriene, B3LYP/pcseg-2
 -------------------------------
 Charge =  0 Multiplicity = 1

                         Standard orientation:
 ---------------------------------------------------------------------
 Center     Atomic      Atomic             Coordinates (Angstroms)
 Number     Number       Type             X           Y           Z
 ---------------------------------------------------------------------
      1          6           0        0.453771    1.484313   -0.000000
      2          1           0        1.495710    1.145720   -0.000000
      3          6           0       -0.247075    0.949803    1.219210
      4          1           0       -0.751128    1.650274    1.874163
      5          6           0       -0.247075    0.949803   -1.219210
      6          1           0       -0.751128    1.650274   -1.874163
      7          6           0       -0.247075   -0.359708    1.524370
      8          1           0       -0.674975   -0.667294    2.472533
      9          6           0       -0.247075   -0.359708   -1.524370
     10          1           0       -0.674975   -0.667294   -2.472533
     11          6           0        0.253370   -1.416060    0.679463
     12          1           0        0.532053   -2.339262    1.175066
     13          6           0        0.253370   -1.416060   -0.679463
     14          1           0        0.532053   -2.339262   -1.175066
     15          1           0        0.459117    2.572544   -0.000000
 ---------------------------------------------------------------------

 SCF Done:  E(RB3LYP) =  -271.617174989     A.U. after    1 cycles

 The electronic state is 1-A'.
 Alpha  occ. eigenvalues --  -10.17994 -10.17992 -10.17770 -10.17704 -10.17694
 Alpha  occ. eigenvalues --  -10.17123 -10.17123  -0.84559  -0.77027  -0.76931
 Alpha  occ. eigenvalues --   -0.66553  -0.63370  -0.54056  -0.51748  -0.50440
 Alpha  occ. eigenvalues --   -0.45289  -0.45264  -0.43143  -0.38194  -0.38077
 Alpha  occ. eigenvalues --   -0.35944  -0.34667  -0.32034  -0.26288  -0.22727
 Alpha virt. eigenvalues --   -0.04598   0.00454   0.01358   0.03660   0.03737
 Alpha virt. eigenvalues --    0.05393   0.06125   0.07333   0.08960   0.09779
 Alpha virt. eigenvalues --    0.09855   0.15239   0.15943   0.16674   0.18878

 Mulliken charges:
               1
     1  C   -0.000643
     2  H    0.065837
     3  C   -0.069589
     4  H    0.033642
     5  C   -0.069589
     6  H    0.033642
     7  C   -0.030090
     8  H    0.027550
     9  C   -0.030090
    10  H    0.027550
    11  C   -0.035922
    12  H    0.028765
    13  C   -0.035922
    14  H    0.028765
    15  H    0.026096
 Sum of Mulliken charges =   0.00000

 Dipole moment (field-independent basis, Debye):
    X=             -0.1137    Y=              0.3106    Z=             -0.0000  Tot=              0.3307
 Quadrupole moment (field-independent basis, Debye-Ang):
   XX=            -45.4562   YY=            -38.8902   ZZ=            -40.9190
   XY=             -0.9595   XZ=              0.0000   YZ=              0.0000

  Exact polarizability:  55.737  -4.564  96.005  -0.000   0.000  92.534
 Approx polarizability:  85.491  -9.320 160.944   0.000   0.000 147.202

                      1                      2                      3
                     A'                     A"                     A'
 Frequencies --    213.5156               297.2196               357.4431
 Red. masses --      2.1523                 2.9934                 3.2246
 Frc consts  --      0.0578                 0.1558                 0.2427
 IR Inten    --      0.2964                 0.6021                 1.9982

                      4                      5                      6
                     A"                     A'                     A"
 Frequencies --    419.6024               433.4140               614.5155
 Red. masses --      5.2011                 2.1855                 2.5300
 Frc consts  --      0.5395                 0.2419                 0.5629
 IR Inten    --      0.5739                 6.9476                 3.7231

                      7                      8                      9
                     A'                     A'                     A"
 Frequencies --    670.3753               729.6798               765.2956
 Red. masses --      1.8762                 1.5399                 1.4467
 Frc consts  --      0.4968                 0.4831                 0.4992
 IR Inten    --     20.3668                75.4297                30.4744

                     10                     11                     12
                     A'                     A"                     A'
 Frequencies --    817.1692               895.1959               923.0327
 Red. masses --      1.6463                 3.9129                 2.9570
 Frc consts  --      0.6477                 1.8475                 1.4844
 IR Inten    --      2.4892                 0.1064                 3.4876

                     13                     14                     15
                     A'                     A"                     A'
 Frequencies --    941.8046               961.3540               988.9200
 Red. masses --      2.4548                 2.6480                 1.4462
 Frc consts  --      1.2829                 1.4419                 0.8333
 IR Inten    --      0.4467                 1.5089                 0.1061

                     16                     17                     18
                     A"                     A"                     A'
 Frequencies --    993.6596              1011.9507              1042.9900
 Red. masses --      1.3187                 1.2979                 2.2808
 Frc consts  --      0.7671                 0.7831                 1.4618
 IR Inten    --      0.6050                 0.0027                 2.0475

                     19                     20                     21
                     A"                     A"                     A'
 Frequencies --   1069.4072              1212.9464              1224.3621
 Red. masses --      1.8205                 1.1139                 1.1586
 Frc consts  --      1.2267                 0.9655                 1.0233
 IR Inten    --      1.3461                 0.0939                 0.5944

                     22                     23                     24
                     A'                     A"                     A"
 Frequencies --   1249.9548              1269.6738              1329.7757
 Red. masses --      1.0959                 1.1105                 1.4731
 Frc consts  --      1.0088                 1.0548                 1.5348
 IR Inten    --      0.3395                 0.3382                 2.2414

                     25                     26                     27
                     A"                     A'                     A"
 Frequencies --   1392.0719              1430.6566              1479.4780
 Red. masses --      1.3080                 1.4762                 1.7399
 Frc consts  --      1.4934                 1.7802                 2.2439
 IR Inten    --      0.8419                 3.7001                 0.0249

                     28                     29                     30
                     A'                     A'                     A"
 Frequencies --   1480.6866              1568.0465              1658.6627
 Red. masses --      1.1000                 7.7066                 6.0669
 Frc consts  --      1.4210                11.1642                 9.8340
 IR Inten    --      6.3678                 0.1357                 1.7261

                     31                     32                     33
                     A'                     A'                     A'
 Frequencies --   1668.4847              2994.9170              3094.2270
 Red. masses --      4.6942                 1.0700                 1.0915
 Frc consts  --      7.6993                 5.6547                 6.1571
 IR Inten    --      0.3391                28.2510                19.8729

                     34                     35                     36
                     A"                     A'                     A"
 Frequencies --   3132.1017              3137.7840              3144.6726
 Red. masses --      1.0828                 1.0850                 1.0857
 Frc consts  --      6.2582                 6.2941                 6.3259
 IR Inten    --      0.5853                 1.9705                 6.5502

                     37                     38                     39
                     A'                     A"                     A'
 Frequencies --   3158.9211              3165.1371              3169.2581
 Red. masses --      1.0920                 1.0945                 1.0952
 Frc consts  --      6.4202                 6.4602                 6.4812
 IR Inten    --     43.3705                34.3420                 4.6015

 - Thermochemistry -
 -------------------
 Temperature   298.150 Kelvin.  Pressure   1.00000 Atm.
 Atom     1 has atomic number  6 and mass  12.00000

 Molecular mass:    92.06260 amu.
 Principal axes and moments of inertia in atomic units:
                           1         2         3
     Eigenvalues --   487.46529 488.35575 891.58504
           X           -0.04610   0.00000   0.99894
           Y            0.99894   0.00000   0.04610
           Z           -0.00000   1.00000  -0.00000
 This molecule is an asymmetric top.
 Rotational symmetry number  1.
 Warning -- assumption of classical behavior for rotation
           may cause significant error
 Rotational temperatures (Kelvin)      0.17768     0.17736     0.09715
 Rotational constants (GHZ):           3.70230     3.69555     2.02419
 Zero-point vibrational energy     335602.5 (Joules/Mol)
                                   80.21093 (Kcal/Mol)
 Warning -- explicit consideration of   6 degrees of freedom as
           vibrations may cause significant error
 Vibrational temperatures:    307.20   427.63   514.28   603.71   623.59
          (Kelvin)            884.15   964.52  1049.85  1101.09  1175.72
                             1287.99  1328.04  1355.05  1383.17  1422.84
                             1429.65  1455.97  1500.63  1538.64  1745.16
                             1761.58  1798.41  1826.78  1913.25  2002.88
                             2058.40  2128.64  2130.38  2256.07  2386.45
                             2400.58  4309.02  4451.90  4506.40  4514.57
                             4524.48  4544.98  4553.93  4559.86

 Zero-point correction=                           0.127824 (Hartree/Particle)
 Thermal correction to Energy=                    0.133549
 Thermal correction to Enthalpy=                  0.134493
 Thermal correction to Gibbs Free Energy=         0.098719
 Sum of electronic and zero-point Energies=           -271.489351
 Sum of electronic and thermal Energies=              -271.483626
 Sum of electronic and thermal Enthalpies=            -271.482682
 Sum of electronic and thermal Free Energies=         -271.518456

                     E (Thermal)             CV                S
                      KCal/Mol        Cal/Mol-Kelvin    Cal/Mol-Kelvin
 Total                   83.803             22.827             75.293
 Electronic               0.000              0.000              0.000
 Translational            0.889              2.981             39.471
 Rotational               0.889              2.981             26.853
 Vibrational             82.026             16.865              8.968
 Vibration     1          0.644              1.820              2.013
 Vibration     2          0.691              1.679              1.433
 Vibration     3          0.733              1.560              1.133
 Vibration     4          0.782              1.428              0.893
 Vibration     5          0.794              1.397              0.848
 Vibration     6          0.974              1.001              0.425

                           ! Non-Optimized Parameters !
 Normal termination of Gaussian 16 at Thu Jun 16 16:45:32 2022.
