 Gaussian 16, Revision B.01,
 Gaussian 16:  ES64L-G16RevB.01 20-Dec-2017

 --------------------
 # opt freq b3lyp/gen
 --------------------

 ------------------------------
 cycloheptadiene, B3LYP/pcseg-2
 ------------------------------
 Symbolic Z-matrix:
 Charge =  0 Multiplicity = 1

 SCF Done:  E(RB3LYP) =  -272.838206533     A.U. after   12 cycles
 SCF Done:  E(RB3LYP) =  -272.838335106     A.U. after    8 cycles
 SCF Done:  E(RB3LYP) =  -272.838335979     A.U. after    7 cycles
 Optimization completed.
    -- Stationary point found.
 Normal termination of Gaussian 16 at Tue Sep 12 10:28:19 2023.

 ------------------------------------------------------------------
 #N Geom=AllCheck Guess=TCheck SCRF=Check GenChk RB3LYP/ChkBas Freq
 ------------------------------------------------------------------

 Structure from the checkpoint file:  "/wrk/irikura/Gau-329654.chk"
 ------------------------------
 cycloheptadiene, B3LYP/pcseg-2
 ------------------------------
 Charge =  0 Multiplicity = 1

                         Standard orientation:
 ---------------------------------------------------------------------
 Center     Atomic      Atomic             Coordinates (Angstroms)
 Number     Number       Type             X           Y           Z
 ---------------------------------------------------------------------
      1          6           0        0.623521   -1.413279   -0.000000
      2          6           0       -0.130314    1.489433    0.730239
      3          6           0       -0.130314    1.489433   -0.730239
      4          6           0       -0.130314    0.465201    1.593417
      5          6           0       -0.130314    0.465201   -1.593417
      6          6           0       -0.080054   -1.004805    1.296845
      7          6           0       -0.080054   -1.004805   -1.296845
      8          1           0        0.729499   -2.500505   -0.000000
      9          1           0        1.636140   -1.003318   -0.000000
     10          1           0       -0.162444    2.481585    1.167435
     11          1           0       -0.162444    2.481585   -1.167435
     12          1           0       -0.170402    0.718422    2.647614
     13          1           0       -0.170402    0.718422   -2.647614
     14          1           0        0.423701   -1.499418    2.132172
     15          1           0       -1.100142   -1.407810    1.303850
     16          1           0        0.423701   -1.499418   -2.132172
     17          1           0       -1.100142   -1.407810   -1.303850
 ---------------------------------------------------------------------

 SCF Done:  E(RB3LYP) =  -272.838335979     A.U. after    1 cycles

 The electronic state is 1-A'.
 Alpha  occ. eigenvalues --  -10.17289 -10.17289 -10.17020 -10.17020 -10.16978
 Alpha  occ. eigenvalues --  -10.16679 -10.16643  -0.83095  -0.76712  -0.76564
 Alpha  occ. eigenvalues --   -0.66515  -0.64028  -0.55529  -0.50342  -0.49612
 Alpha  occ. eigenvalues --   -0.46612  -0.43310  -0.42182  -0.41825  -0.38402
 Alpha  occ. eigenvalues --   -0.35423  -0.35228  -0.33002  -0.31931  -0.30498
 Alpha  occ. eigenvalues --   -0.22171
 Alpha virt. eigenvalues --   -0.03680   0.00999   0.03375   0.03625   0.04795
 Alpha virt. eigenvalues --    0.06573   0.06682   0.07613   0.08254   0.09356
 Alpha virt. eigenvalues --    0.10359   0.10513   0.12861   0.15728   0.17197

 Mulliken charges:
               1
     1  C   -0.060772
     2  C   -0.032668
     3  C   -0.032668
     4  C   -0.084737
     5  C   -0.084737
     6  C    0.018124
     7  C    0.018124
     8  H    0.029505
     9  H    0.035503
    10  H    0.016683
    11  H    0.016683
    12  H    0.026244
    13  H    0.026244
    14  H    0.024367
    15  H    0.029870
    16  H    0.024367
    17  H    0.029870
 Sum of Mulliken charges =  -0.00000

 Dipole moment (field-independent basis, Debye):
    X=             -0.0080    Y=             -0.8140    Z=              0.0000  Tot=              0.8140
 Quadrupole moment (field-independent basis, Debye-Ang):
   XX=            -46.5165   YY=            -42.0973   ZZ=            -42.0101
   XY=             -0.0211   XZ=              0.0000   YZ=              0.0000

  Exact polarizability:  58.329  -1.845  90.078  -0.000  -0.000  98.724
 Approx polarizability:  89.840   0.582 130.156  -0.000   0.000 152.027

                      1                      2                      3
                     A"                     A'                     A'
 Frequencies --     45.9774               242.3409               348.6665
 Red. masses --      1.9515                 2.2635                 1.7540
 Frc consts  --      0.0024                 0.0783                 0.1256
 IR Inten    --      0.2494                 0.1075                 0.1215

                      4                      5                      6
                     A"                     A'                     A"
 Frequencies --    370.1794               386.1922               523.9763
 Red. masses --      4.3928                 3.6040                 2.2951
 Frc consts  --      0.3547                 0.3167                 0.3713
 IR Inten    --      0.3468                 0.6616                 0.6582

                      7                      8                      9
                     A'                     A'                     A'
 Frequencies --    586.6937               698.4776               766.0391
 Red. masses --      1.6183                 1.3140                 3.6438
 Frc consts  --      0.3282                 0.3777                 1.2598
 IR Inten    --     15.9768                55.3819                 0.5003

                     10                     11                     12
                     A"                     A"                     A"
 Frequencies --    776.8479               852.2648               879.3756
 Red. masses --      1.5053                 1.8319                 3.0301
 Frc consts  --      0.5352                 0.7840                 1.3806
 IR Inten    --      0.0414                 9.4796                 0.7146

                     13                     14                     15
                     A'                     A"                     A'
 Frequencies --    887.3589               914.4551               966.3251
 Red. masses --      2.9626                 2.6037                 2.2438
 Frc consts  --      1.3744                 1.2828                 1.2345
 IR Inten    --      0.1374                 6.9426                 4.2437

                     16                     17                     18
                     A'                     A"                     A'
 Frequencies --   1008.4094              1018.5057              1061.1224
 Red. masses --      1.2330                 1.2573                 1.8538
 Frc consts  --      0.7387                 0.7684                 1.2298
 IR Inten    --      0.7639                 0.1055                 3.6355

                     19                     20                     21
                     A'                     A"                     A"
 Frequencies --   1076.0018              1090.1642              1176.2427
 Red. masses --      2.1545                 1.9204                 1.1921
 Frc consts  --      1.4697                 1.3447                 0.9718
 IR Inten    --      4.5889                 3.5873                 3.7424

                     22                     23                     24
                     A"                     A'                     A"
 Frequencies --   1250.2870              1285.0290              1286.8385
 Red. masses --      1.1633                 1.0787                 1.1479
 Frc consts  --      1.0714                 1.0495                 1.1200
 IR Inten    --      0.6997                 1.3119                 1.0034

                     25                     26                     27
                     A'                     A"                     A"
 Frequencies --   1290.3832              1375.4449              1384.5074
 Red. masses --      1.1437                 1.4669                 1.2974
 Frc consts  --      1.1220                 1.6351                 1.4653
 IR Inten    --      3.4008                 3.2954                 1.2783

                     28                     29                     30
                     A'                     A"                     A'
 Frequencies --   1393.0071              1437.7550              1465.8817
 Red. masses --      1.5584                 1.3582                 1.5153
 Frc consts  --      1.7817                 1.6541                 1.9184
 IR Inten    --      0.0947                 0.0841                 0.6484

                     31                     32                     33
                     A"                     A'                     A'
 Frequencies --   1467.3450              1477.2215              1491.6644
 Red. masses --      1.0891                 1.0898                 1.1123
 Frc consts  --      1.3816                 1.4011                 1.4582
 IR Inten    --      4.1407                11.1884                 5.1018

                     34                     35                     36
                     A'                     A"                     A"
 Frequencies --   1667.9007              1704.7868              2986.3713
 Red. masses --      7.7137                 5.2022                 1.0707
 Frc consts  --     12.6431                 8.9079                 5.6260
 IR Inten    --      8.2412                 0.3999                10.1080

                     37                     38                     39
                     A'                     A'                     A"
 Frequencies --   2993.2220              3018.8047              3030.0009
 Red. masses --      1.0699                 1.0705                 1.0891
 Frc consts  --      5.6479                 5.7478                 5.8914
 IR Inten    --     31.6313                 2.6965                30.8410

                     40                     41                     42
                     A'                     A'                     A"
 Frequencies --   3039.4620              3061.9665              3122.5626
 Red. masses --      1.0789                 1.1035                 1.0826
 Frc consts  --      5.8725                 6.0957                 6.2192
 IR Inten    --     59.6838                35.0423                 0.4255

                     43                     44                     45
                     A'                     A"                     A'
 Frequencies --   3130.7081              3145.4946              3157.0260
 Red. masses --      1.0849                 1.0923                 1.0932
 Frc consts  --      6.2650                 6.3673                 6.4198
 IR Inten    --      2.5217                46.8515                31.9278

 - Thermochemistry -
 -------------------
 Temperature   298.150 Kelvin.  Pressure   1.00000 Atm.
 Atom     1 has atomic number  6 and mass  12.00000

 Molecular mass:    94.07825 amu.
 Principal axes and moments of inertia in atomic units:
                           1         2         3
     Eigenvalues --   527.16868 546.137731006.37996
           X            0.00000  -0.13674   0.99061
           Y            0.00000   0.99061   0.13674
           Z            1.00000  -0.00000  -0.00000
 This molecule is an asymmetric top.
 Rotational symmetry number  1.
 Warning -- assumption of classical behavior for rotation
           may cause significant error
 Rotational temperatures (Kelvin)      0.16430     0.15859     0.08606
 Rotational constants (GHZ):           3.42346     3.30455     1.79330
 Zero-point vibrational energy     396797.1 (Joules/Mol)
                                   94.83677 (Kcal/Mol)
 Warning -- explicit consideration of   7 degrees of freedom as
           vibrations may cause significant error
 Vibrational temperatures:     66.15   348.67   501.65   532.61   555.64
          (Kelvin)            753.89   844.12  1004.95  1102.16  1117.71
                             1226.22  1265.23  1276.71  1315.70  1390.33
                             1450.88  1465.40  1526.72  1548.13  1568.50
                             1692.35  1798.88  1848.87  1851.47  1856.57
                             1978.96  1992.00  2004.23  2068.61  2109.08
                             2111.18  2125.39  2146.17  2399.74  2452.81
                             4296.72  4306.58  4343.39  4359.50  4373.11
                             4405.49  4492.67  4504.39  4525.67  4542.26

 Zero-point correction=                           0.151132 (Hartree/Particle)
 Thermal correction to Energy=                    0.157541
 Thermal correction to Enthalpy=                  0.158485
 Thermal correction to Gibbs Free Energy=         0.120489
 Sum of electronic and zero-point Energies=           -272.687204
 Sum of electronic and thermal Energies=              -272.680795
 Sum of electronic and thermal Enthalpies=            -272.679851
 Sum of electronic and thermal Free Energies=         -272.717847

                     E (Thermal)             CV                S
                      KCal/Mol        Cal/Mol-Kelvin    Cal/Mol-Kelvin
 Total                   98.859             24.647             79.971
 Electronic               0.000              0.000              0.000
 Translational            0.889              2.981             39.536
 Rotational               0.889              2.981             27.163
 Vibrational             97.081             18.685             13.272
 Vibration     1          0.595              1.979              4.983
 Vibration     2          0.659              1.775              1.786
 Vibration     3          0.726              1.578              1.172
 Vibration     4          0.742              1.533              1.079
 Vibration     5          0.755              1.500              1.015
 Vibration     6          0.879              1.197              0.601
 Vibration     7          0.944              1.060              0.473

 Optimization completed.
    -- Stationary point found.
 Normal termination of Gaussian 16 at Tue Sep 12 10:35:26 2023.
