 Gaussian 16, Revision B.01,

 ---------------------------------------
 # b3lyp/gen opt freq CPHF(Grid=OneStep)
 ---------------------------------------

 -------------------------------
 cycloheptatriene, B3LYP/pcseg-2
 -------------------------------
 Symbolic Z-matrix:
 Charge =  0 Multiplicity = 1

 SCF Done:  E(RB3LYP) =  -271.617174989     A.U. after   12 cycles
 Optimization completed.
    -- Stationary point found.
 Normal termination of Gaussian 16 at Sun Oct  1 05:16:58 2023.

 ------------------------------------------------------------------
 #N Geom=AllCheck Guess=TCheck SCRF=Check GenChk RB3LYP/ChkBas Freq
 ------------------------------------------------------------------

 Structure from the checkpoint file:  "cyc7triene.chk"
 -------------------------------
 cycloheptatriene, B3LYP/pcseg-2
 -------------------------------
 Charge =  0 Multiplicity = 1

 SCF Done:  E(RB3LYP) =  -271.617174989     A.U. after    1 cycles

  Exact polarizability:  55.739  -4.564  96.004  -0.000   0.000  92.536
 Approx polarizability:  85.491  -9.320 160.944   0.000   0.000 147.202

                      1                      2                      3
                     A'                     A"                     A'
 Frequencies --    213.5171               297.2187               357.4441
 Red. masses --      2.1523                 2.9934                 3.2246
 Frc consts  --      0.0578                 0.1558                 0.2427
 IR Inten    --      0.2966                 0.6020                 1.9984

                      4                      5                      6
                     A"                     A'                     A"
 Frequencies --    419.5999               433.4169               614.5157
 Red. masses --      5.2010                 2.1855                 2.5300
 Frc consts  --      0.5395                 0.2419                 0.5629
 IR Inten    --      0.5739                 6.9478                 3.7229

                      7                      8                      9
                     A'                     A'                     A"
 Frequencies --    670.3724               729.6800               765.3028
 Red. masses --      1.8762                 1.5400                 1.4467
 Frc consts  --      0.4968                 0.4831                 0.4992
 IR Inten    --     20.3700                75.4290                30.4780

                     10                     11                     12
                     A'                     A"                     A'
 Frequencies --    817.1705               895.1947               923.0323
 Red. masses --      1.6463                 3.9130                 2.9570
 Frc consts  --      0.6477                 1.8475                 1.4843
 IR Inten    --      2.4888                 0.1064                 3.4889

                     13                     14                     15
                     A'                     A"                     A'
 Frequencies --    941.8037               961.3541               988.9203
 Red. masses --      2.4548                 2.6480                 1.4462
 Frc consts  --      1.2829                 1.4419                 0.8333
 IR Inten    --      0.4468                 1.5098                 0.1059

                     16                     17                     18
                     A"                     A"                     A'
 Frequencies --    993.6615              1011.9502              1042.9800
 Red. masses --      1.3187                 1.2979                 2.2808
 Frc consts  --      0.7671                 0.7831                 1.4618
 IR Inten    --      0.6056                 0.0027                 2.0468

                     19                     20                     21
                     A"                     A"                     A'
 Frequencies --   1069.4066              1212.9460              1224.3626
 Red. masses --      1.8205                 1.1139                 1.1586
 Frc consts  --      1.2267                 0.9655                 1.0233
 IR Inten    --      1.3463                 0.0939                 0.5945

                     22                     23                     24
                     A'                     A"                     A"
 Frequencies --   1249.9549              1269.6724              1329.7734
 Red. masses --      1.0959                 1.1105                 1.4731
 Frc consts  --      1.0088                 1.0548                 1.5348
 IR Inten    --      0.3394                 0.3387                 2.2411

                     25                     26                     27
                     A"                     A'                     A"
 Frequencies --   1392.0727              1430.6547              1479.4791
 Red. masses --      1.3080                 1.4762                 1.7399
 Frc consts  --      1.4934                 1.7802                 2.2439
 IR Inten    --      0.8418                 3.7007                 0.0248

                     28                     29                     30
                     A'                     A'                     A"
 Frequencies --   1480.6911              1568.0464              1658.6607
 Red. masses --      1.1000                 7.7065                 6.0669
 Frc consts  --      1.4210                11.1642                 9.8340
 IR Inten    --      6.3670                 0.1359                 1.7284

                     31                     32                     33
                     A'                     A'                     A'
 Frequencies --   1668.4851              2994.9357              3094.2355
 Red. masses --      4.6942                 1.0700                 1.0915
 Frc consts  --      7.6994                 5.6548                 6.1571
 IR Inten    --      0.3384                28.2682                19.8669

                     34                     35                     36
                     A"                     A'                     A"
 Frequencies --   3132.1001              3137.7820              3144.6707
 Red. masses --      1.0828                 1.0850                 1.0857
 Frc consts  --      6.2582                 6.2941                 6.3259
 IR Inten    --      0.5854                 1.9710                 6.5491

                     37                     38                     39
                     A'                     A"                     A'
 Frequencies --   3158.9197              3165.1341              3169.2550
 Red. masses --      1.0920                 1.0945                 1.0952
 Frc consts  --      6.4202                 6.4602                 6.4812
 IR Inten    --     43.3724                34.3379                 4.6000

 - Thermochemistry -
 -------------------
 Temperature   298.150 Kelvin.  Pressure   1.00000 Atm.
 Atom     1 has atomic number  6 and mass  12.00000

 Molecular mass:    92.06260 amu.
 Principal axes and moments of inertia in atomic units:
                           1         2         3
     Eigenvalues --   487.46532 488.35578 891.58512
           X           -0.04610   0.00000   0.99894
           Y            0.99894   0.00000   0.04610
           Z           -0.00000   1.00000  -0.00000
 This molecule is an asymmetric top.
 Rotational symmetry number  1.
 Warning -- assumption of classical behavior for rotation
           may cause significant error
 Rotational temperatures (Kelvin)      0.17768     0.17736     0.09715
 Rotational constants (GHZ):           3.70230     3.69555     2.02419
 Zero-point vibrational energy     335602.6 (Joules/Mol)
                                   80.21095 (Kcal/Mol)
 Warning -- explicit consideration of   6 degrees of freedom as
           vibrations may cause significant error
 Vibrational temperatures:    307.20   427.63   514.28   603.71   623.59
          (Kelvin)            884.15   964.52  1049.85  1101.10  1175.73
                             1287.99  1328.04  1355.05  1383.17  1422.84
                             1429.66  1455.97  1500.62  1538.64  1745.16
                             1761.58  1798.41  1826.78  1913.25  2002.88
                             2058.39  2128.64  2130.38  2256.07  2386.44
                             2400.58  4309.04  4451.91  4506.39  4514.57
                             4524.48  4544.98  4553.92  4559.85

 Zero-point correction=                           0.127824 (Hartree/Particle)
 Thermal correction to Energy=                    0.133549
 Thermal correction to Enthalpy=                  0.134493
 Thermal correction to Gibbs Free Energy=         0.098719
 Sum of electronic and zero-point Energies=           -271.489351
 Sum of electronic and thermal Energies=              -271.483626
 Sum of electronic and thermal Enthalpies=            -271.482682
 Sum of electronic and thermal Free Energies=         -271.518456

                     E (Thermal)             CV                S
                      KCal/Mol        Cal/Mol-Kelvin    Cal/Mol-Kelvin
 Total                   83.803             22.827             75.293
 Electronic               0.000              0.000              0.000
 Translational            0.889              2.981             39.471
 Rotational               0.889              2.981             26.853
 Vibrational             82.026             16.865              8.968
 Vibration     1          0.644              1.820              2.013
 Vibration     2          0.691              1.679              1.433
 Vibration     3          0.733              1.560              1.133
 Vibration     4          0.782              1.428              0.893
 Vibration     5          0.794              1.397              0.848
 Vibration     6          0.974              1.001              0.425

                           ! Non-Optimized Parameters !
 Normal termination of Gaussian 16 at Sun Oct  1 05:35:40 2023.
 Gaussian 16:  ES64L-G16RevB.01 20-Dec-2017

 ---------------------------------
 # rohf/gen geom=check guess=check
 ---------------------------------

 ----------------------------------
 cycloheptatriene, ROHF/cc-pVTZ-F12
 ----------------------------------
 Structure from the checkpoint file:  "cyc7triene.chk"
 Charge =  0 Multiplicity = 1

                         Standard orientation:
 ---------------------------------------------------------------------
 Center     Atomic      Atomic             Coordinates (Angstroms)
 Number     Number       Type             X           Y           Z
 ---------------------------------------------------------------------
      1          6           0        0.453771    1.484313    0.000000
      2          1           0        1.495710    1.145720    0.000000
      3          6           0       -0.247075    0.949803    1.219210
      4          1           0       -0.751128    1.650274    1.874163
      5          6           0       -0.247075    0.949803   -1.219210
      6          1           0       -0.751128    1.650274   -1.874163
      7          6           0       -0.247075   -0.359708    1.524370
      8          1           0       -0.674975   -0.667294    2.472533
      9          6           0       -0.247075   -0.359708   -1.524370
     10          1           0       -0.674975   -0.667294   -2.472533
     11          6           0        0.253370   -1.416060    0.679463
     12          1           0        0.532053   -2.339262    1.175066
     13          6           0        0.253370   -1.416060   -0.679463
     14          1           0        0.532053   -2.339262   -1.175066
     15          1           0        0.459117    2.572544    0.000000
 ---------------------------------------------------------------------

 SCF Done:  E(ROHF) =  -269.788148449     A.U. after   11 cycles

 The electronic state is 1-A'.
 Alpha  occ. eigenvalues --  -11.23618 -11.23614 -11.23453 -11.23305 -11.22992
 Alpha  occ. eigenvalues --  -11.22508 -11.22508  -1.13421  -1.04108  -1.03768
 Alpha  occ. eigenvalues --   -0.90349  -0.85787  -0.73540  -0.69537  -0.68985
 Alpha  occ. eigenvalues --   -0.61788  -0.61581  -0.58850  -0.53027  -0.52708
 Alpha  occ. eigenvalues --   -0.50426  -0.48612  -0.43762  -0.35210  -0.30338
 Alpha virt. eigenvalues --    0.04452   0.05082   0.05339   0.05859   0.06667
 Alpha virt. eigenvalues --    0.07324   0.08317   0.08780   0.09256   0.09837
 Alpha virt. eigenvalues --    0.10788   0.11079   0.11939   0.12800   0.12830

 Mulliken charges and spin densities:
               1          2
     1  C   -0.096536   0.000000
     2  H    0.093445   0.000000
     3  C   -0.134946   0.000000
     4  H    0.157317   0.000000
     5  C   -0.134946   0.000000
     6  H    0.157317   0.000000
     7  C   -0.184045   0.000000
     8  H    0.138252   0.000000
     9  C   -0.184045   0.000000
    10  H    0.138252   0.000000
    11  C   -0.155114   0.000000
    12  H    0.133286   0.000000
    13  C   -0.155114   0.000000
    14  H    0.133286   0.000000
    15  H    0.093590   0.000000
 Sum of Mulliken charges =  -0.00000   0.00000

 Dipole moment (field-independent basis, Debye):
    X=             -0.1083    Y=              0.3844    Z=              0.0000  Tot=              0.3994
 Quadrupole moment (field-independent basis, Debye-Ang):
   XX=            -46.0680   YY=            -38.5426   ZZ=            -41.1499
   XY=             -1.0562   XZ=              0.0000   YZ=              0.0000

 Normal termination of Gaussian 16 at Sun Oct  1 05:41:48 2023.
