 Gaussian 16, Revision B.01,
 Gaussian 16:  ES64L-G16RevB.01 20-Dec-2017

 --------------------
 # b3lyp/gen opt freq
 --------------------

 --------------------------
 cyclobutene, B3LYP/pcseg-2
 --------------------------
 Symbolic Z-matrix:
 Charge =  0 Multiplicity = 1

 SCF Done:  E(RB3LYP) =  -156.035936729     A.U. after   11 cycles
 SCF Done:  E(RB3LYP) =  -156.036010966     A.U. after    7 cycles
 Optimization completed.
    -- Stationary point found.
 Normal termination of Gaussian 16 at Thu Jun 16 10:03:34 2022.

 ------------------------------------------------------------------
 #N Geom=AllCheck Guess=TCheck SCRF=Check GenChk RB3LYP/ChkBas Freq
 ------------------------------------------------------------------

 Structure from the checkpoint file:  "/wrk/irikura/Gau-30288.chk"
 --------------------------
 cyclobutene, B3LYP/pcseg-2
 --------------------------
 Charge =  0 Multiplicity = 1

                         Standard orientation:
 ---------------------------------------------------------------------
 Center     Atomic      Atomic             Coordinates (Angstroms)
 Number     Number       Type             X           Y           Z
 ---------------------------------------------------------------------
      1          6           0       -0.000000    0.667268    0.812434
      2          6           0       -0.000000   -0.667268    0.812434
      3          6           0       -0.000000    0.784707   -0.698214
      4          6           0       -0.000000   -0.784707   -0.698214
      5          1           0       -0.000000    1.412400    1.596418
      6          1           0       -0.000000   -1.412400    1.596418
      7          1           0        0.886126    1.243098   -1.140867
      8          1           0       -0.886126   -1.243098   -1.140867
      9          1           0       -0.886126    1.243098   -1.140867
     10          1           0        0.886126   -1.243098   -1.140867
 ---------------------------------------------------------------------

 SCF Done:  E(RB3LYP) =  -156.036010966     A.U. after    1 cycles

 The electronic state is 1-A1.
 Alpha  occ. eigenvalues --  -10.17364 -10.17346 -10.17065 -10.16974  -0.85850
 Alpha  occ. eigenvalues --   -0.65915  -0.64587  -0.51767  -0.50299  -0.46145
 Alpha  occ. eigenvalues --   -0.38618  -0.36468  -0.33228  -0.32207  -0.25593
 Alpha virt. eigenvalues --    0.00641   0.02260   0.04357   0.04464   0.05440
 Alpha virt. eigenvalues --    0.07521   0.10615   0.10741   0.13882   0.16011
 Alpha virt. eigenvalues --    0.16733   0.19316   0.19674   0.23188   0.23212

 Mulliken charges:
               1
     1  C   -0.068516
     2  C   -0.068516
     3  C   -0.034373
     4  C   -0.034373
     5  H    0.028617
     6  H    0.028617
     7  H    0.037136
     8  H    0.037136
     9  H    0.037136
    10  H    0.037136
 Sum of Mulliken charges =  -0.00000

 Dipole moment (field-independent basis, Debye):
    X=             -0.0000    Y=             -0.0000    Z=             -0.1763  Tot=              0.1763
 Quadrupole moment (field-independent basis, Debye-Ang):
   XX=            -26.3187   YY=            -24.4545   ZZ=            -25.0332
   XY=             -0.0000   XZ=              0.0000   YZ=              0.0000

  Exact polarizability:  35.509  -0.000  53.084   0.000  -0.000  47.838
 Approx polarizability:  51.510   0.000  82.476  -0.000  -0.000  63.239

                      1                      2                      3
                     A2                     B1                     B2
 Frequencies --    326.5983               651.8167               865.7693
 Red. masses --      1.6158                 1.0678                 5.1725
 Frc consts  --      0.1015                 0.2673                 2.2843
 IR Inten    --      0.0000                50.9482                 0.3691

                      4                      5                      6
                     B1                     A1                     B2
 Frequencies --    868.1472               883.8693               896.9291
 Red. masses --      1.1292                 2.7140                 1.9546
 Frc consts  --      0.5014                 1.2492                 0.9264
 IR Inten    --     18.7548                 0.9562                14.4427

                      7                      8                      9
                     A2                     A1                     A2
 Frequencies --    945.3201               999.0656              1043.4454
 Red. masses --      1.2018                 1.7215                 1.8845
 Frc consts  --      0.6328                 1.0124                 1.2089
 IR Inten    --      0.0000                 0.0073                 0.0000

                     10                     11                     12
                     B1                     A1                     A2
 Frequencies --   1099.7281              1132.8551              1170.7081
 Red. masses --      1.1909                 1.7689                 1.1699
 Frc consts  --      0.8486                 1.3375                 0.9447
 IR Inten    --      6.9066                 0.1126                 0.0000

                     13                     14                     15
                     A1                     B2                     B2
 Frequencies --   1214.8723              1243.6056              1322.5541
 Red. masses --      1.4701                 1.3915                 1.8129
 Frc consts  --      1.2784                 1.2679                 1.8683
 IR Inten    --      2.1618                 4.0149                13.2533

                     16                     17                     18
                     B2                     A1                     A1
 Frequencies --   1469.1995              1487.1138              1632.7523
 Red. masses --      1.0810                 1.1422                 5.1307
 Frc consts  --      1.3747                 1.4882                 8.0588
 IR Inten    --      0.8893                 0.4567                 1.6804

                     19                     20                     21
                     B2                     A1                     A2
 Frequencies --   3033.8839              3039.0565              3068.3226
 Red. masses --      1.0553                 1.0579                 1.1083
 Frc consts  --      5.7229                 5.7569                 6.1478
 IR Inten    --     46.6707                49.6703                 0.0000

                     22                     23                     24
                     B1                     B2                     A1
 Frequencies --   3082.4150              3171.1965              3201.6953
 Red. masses --      1.1063                 1.0840                 1.1124
 Frc consts  --      6.1929                 6.4227                 6.7186
 IR Inten    --     48.6085                15.8565                21.5910

 - Thermochemistry -
 -------------------
 Temperature   298.150 Kelvin.  Pressure   1.00000 Atm.
 Atom     1 has atomic number  6 and mass  12.00000

 Molecular mass:    54.04695 amu.
 Principal axes and moments of inertia in atomic units:
                           1         2         3
     Eigenvalues --   138.84383 146.61550 262.85126
           X            0.00000   0.00000   1.00000
           Y            0.00000   1.00000   0.00000
           Z            1.00000   0.00000   0.00000
 This molecule is an asymmetric top.
 Rotational symmetry number  2.
 Rotational temperatures (Kelvin)      0.62382     0.59076     0.32952
 Rotational constants (GHZ):          12.99835    12.30935     6.86602
 Zero-point vibrational energy     226398.8 (Joules/Mol)
                                   54.11061 (Kcal/Mol)
 Warning -- explicit consideration of   1 degrees of freedom as
           vibrations may cause significant error
 Vibrational temperatures:    469.90   937.82  1245.65  1249.07  1271.69
          (Kelvin)           1290.48  1360.10  1437.43  1501.29  1582.26
                             1629.93  1684.39  1747.93  1789.27  1902.86
                             2113.85  2139.63  2349.17  4365.08  4372.52
                             4414.63  4434.91  4562.64  4606.53

 Zero-point correction=                           0.086231 (Hartree/Particle)
 Thermal correction to Energy=                    0.090052
 Thermal correction to Enthalpy=                  0.090996
 Thermal correction to Gibbs Free Energy=         0.061281
 Sum of electronic and zero-point Energies=           -155.949780
 Sum of electronic and thermal Energies=              -155.945959
 Sum of electronic and thermal Enthalpies=            -155.945015
 Sum of electronic and thermal Free Energies=         -155.974730

                     E (Thermal)             CV                S
                      KCal/Mol        Cal/Mol-Kelvin    Cal/Mol-Kelvin
 Total                   56.509             13.258             62.540
 Electronic               0.000              0.000              0.000
 Translational            0.889              2.981             37.884
 Rotational               0.889              2.981             21.819
 Vibrational             54.731              7.296              2.837
 Vibration     1          0.710              1.622              1.277

                           ! Non-Optimized Parameters !
 Normal termination of Gaussian 16 at Thu Jun 16 10:04:20 2022.
