 Gaussian 16, Revision B.01,
 Gaussian 16:  ES64L-G16RevB.01 20-Dec-2017

 --------------------
 # b3lyp/gen opt freq
 --------------------

 --------------------------
 cyclohexene, B3LYP/pcseg-2
 --------------------------
 Symbolic Z-matrix:
 Charge =  0 Multiplicity = 1

 SCF Done:  E(RB3LYP) =  -234.740741214     A.U. after   11 cycles
 SCF Done:  E(RB3LYP) =  -234.740773268     A.U. after    7 cycles
 SCF Done:  E(RB3LYP) =  -234.740774589     A.U. after    6 cycles
 Optimization completed.
    -- Stationary point found.
 Normal termination of Gaussian 16 at Fri Jun 17 20:11:29 2022.

 ------------------------------------------------------------------
 #N Geom=AllCheck Guess=TCheck SCRF=Check GenChk RB3LYP/ChkBas Freq
 ------------------------------------------------------------------

 Structure from the checkpoint file:  "/wrk/irikura/Gau-20310.chk"
 --------------------------
 cyclohexene, B3LYP/pcseg-2
 --------------------------
 Charge =  0 Multiplicity = 1

                         Standard orientation:
 ---------------------------------------------------------------------
 Center     Atomic      Atomic             Coordinates (Angstroms)
 Number     Number       Type             X           Y           Z
 ---------------------------------------------------------------------
      1          6           0       -0.118479   -0.654614    1.302443
      2          6           0        0.118479    0.654614    1.302443
      3          6           0        0.249168    1.476393    0.048328
      4          6           0       -0.249168   -1.476393    0.048328
      5          6           0       -0.249168    0.723503   -1.190019
      6          6           0        0.249168   -0.723503   -1.190019
      7          1           0       -0.223359   -1.176621    2.247302
      8          1           0        0.223359    1.176621    2.247302
      9          1           0        1.297476    1.768821   -0.085843
     10          1           0       -1.297476   -1.768821   -0.085843
     11          1           0       -0.300926    2.414004    0.166428
     12          1           0        0.300926   -2.414004    0.166428
     13          1           0       -1.343192    0.724363   -1.194379
     14          1           0        1.343192   -0.724363   -1.194379
     15          1           0        0.068228    1.239603   -2.098020
     16          1           0       -0.068228   -1.239603   -2.098020
 ---------------------------------------------------------------------

 SCF Done:  E(RB3LYP) =  -234.740774589     A.U. after    1 cycles

 The electronic state is 1-A.
 Alpha  occ. eigenvalues --  -10.16747 -10.16747 -10.16412 -10.16389 -10.16251
 Alpha  occ. eigenvalues --  -10.16158  -0.83233  -0.74131  -0.74055  -0.62015
 Alpha  occ. eigenvalues --   -0.59894  -0.51058  -0.49466  -0.44840  -0.42787
 Alpha  occ. eigenvalues --   -0.41013  -0.39089  -0.38173  -0.38017  -0.32930
 Alpha  occ. eigenvalues --   -0.31929  -0.30693  -0.24503
 Alpha virt. eigenvalues --    0.00749   0.01998   0.03896   0.04216   0.04326
 Alpha virt. eigenvalues --    0.06635   0.06837   0.08107   0.08318   0.10384
 Alpha virt. eigenvalues --    0.11326   0.14101   0.16277   0.16870   0.18022

 Mulliken charges:
               1
     1  C   -0.078575
     2  C   -0.078575
     3  C    0.008081
     4  C    0.008081
     5  C   -0.060928
     6  C   -0.060928
     7  H    0.016902
     8  H    0.016902
     9  H    0.028276
    10  H    0.028276
    11  H    0.028854
    12  H    0.028854
    13  H    0.025681
    14  H    0.025681
    15  H    0.031709
    16  H    0.031709
 Sum of Mulliken charges =  -0.00000

 Dipole moment (field-independent basis, Debye):
    X=              0.0000    Y=             -0.0000    Z=             -0.3623  Tot=              0.3623
 Quadrupole moment (field-independent basis, Debye-Ang):
   XX=            -39.7710   YY=            -37.5171   ZZ=            -38.6978
   XY=              0.4492   XZ=             -0.0000   YZ=              0.0000

  Exact polarizability:  56.454   3.835  80.532  -0.000   0.000  70.384
 Approx polarizability:  86.588   6.774 117.495  -0.000   0.000  91.890

                      1                      2                      3
                      B                      A                      A
 Frequencies --    164.8122               274.4200               401.6353
 Red. masses --      1.7563                 1.8070                 1.9231
 Frc consts  --      0.0281                 0.0802                 0.1828
 IR Inten    --      0.2843                 0.0349                 0.0192

                      4                      5                      6
                      B                      A                      B
 Frequencies --    457.7341               503.3847               656.0392
 Red. masses --      2.2803                 4.3466                 1.3261
 Frc consts  --      0.2815                 0.6489                 0.3363
 IR Inten    --      1.2187                 0.0232                27.0091

                      7                      8                      9
                      B                      A                      A
 Frequencies --    731.8421               821.9022               828.1892
 Red. masses --      1.6236                 2.5077                 1.6999
 Frc consts  --      0.5124                 0.9981                 0.6870
 IR Inten    --     10.5880                 0.3938                 0.4971

                     10                     11                     12
                      B                      A                      B
 Frequencies --    880.6087               909.4721               935.5941
 Red. masses --      2.4565                 2.4707                 1.4037
 Frc consts  --      1.1224                 1.2040                 0.7239
 IR Inten    --      5.9627                 1.1000                 5.8527

                     13                     14                     15
                      A                      B                      B
 Frequencies --   1008.3211              1019.7985              1047.3262
 Red. masses --      1.1813                 3.1083                 1.6424
 Frc consts  --      0.7076                 1.9046                 1.0614
 IR Inten    --      0.0011                 1.6029                 4.2679

                     16                     17                     18
                      A                      A                      A
 Frequencies --   1071.2459              1100.3973              1161.0559
 Red. masses --      2.0680                 1.9019                 1.0832
 Frc consts  --      1.3983                 1.3569                 0.8603
 IR Inten    --      0.1189                 0.0070                 0.0803

                     19                     20                     21
                      B                      A                      A
 Frequencies --   1162.9284              1249.7061              1269.9777
 Red. masses --      1.1668                 1.1929                 1.2802
 Frc consts  --      0.9297                 1.0977                 1.2165
 IR Inten    --      5.8942                 0.0304                 0.6043

                     22                     23                     24
                      B                      B                      B
 Frequencies --   1293.9894              1359.3923              1369.6289
 Red. masses --      1.1719                 1.3223                 1.7185
 Frc consts  --      1.1561                 1.4396                 1.8994
 IR Inten    --      2.3948                 1.8480                 1.1893

                     25                     26                     27
                      A                      A                      B
 Frequencies --   1370.2134              1385.7150              1425.7342
 Red. masses --      1.3448                 1.5425                 1.4980
 Frc consts  --      1.4876                 1.7451                 1.7941
 IR Inten    --      0.3118                 0.0085                 0.0454

                     28                     29                     30
                      A                      B                      B
 Frequencies --   1475.0000              1481.0341              1493.1466
 Red. masses --      1.0909                 1.0799                 1.0905
 Frc consts  --      1.3984                 1.3957                 1.4324
 IR Inten    --      0.0197                 8.8709                 5.3803

                     31                     32                     33
                      A                      A                      B
 Frequencies --   1501.3284              1710.9401              2990.7298
 Red. masses --      1.0982                 6.1407                 1.0714
 Frc consts  --      1.4584                10.5910                 5.6464
 IR Inten    --      2.4598                 4.7528                56.0631

                     34                     35                     36
                      A                      A                      B
 Frequencies --   2990.8405              3010.6435              3016.8279
 Red. masses --      1.0716                 1.0683                 1.0643
 Frc consts  --      5.6477                 5.7053                 5.7073
 IR Inten    --      0.0763                13.6272                18.1702

                     37                     38                     39
                      A                      B                      A
 Frequencies --   3034.7299              3035.0840              3059.9254
 Red. masses --      1.0888                 1.0839                 1.0938
 Frc consts  --      5.9081                 5.8830                 6.0342
 IR Inten    --      0.4631                89.3348                55.5945

                     40                     41                     42
                      B                      B                      A
 Frequencies --   3062.6888              3132.1247              3155.0825
 Red. masses --      1.1046                 1.0840                 1.0958
 Frc consts  --      6.1048                 6.2655                 6.4270
 IR Inten    --     54.3523                 9.5806                37.8743

 - Thermochemistry -
 -------------------
 Temperature   298.150 Kelvin.  Pressure   1.00000 Atm.
 Atom     1 has atomic number  6 and mass  12.00000

 Molecular mass:    82.07825 amu.
 Principal axes and moments of inertia in atomic units:
                           1         2         3
     Eigenvalues --   380.64783 395.66761 705.73218
           X            0.09116   0.00000   0.99584
           Y            0.99584   0.00000  -0.09116
           Z           -0.00000   1.00000   0.00000
 This molecule is an asymmetric top.
 Rotational symmetry number  2.
 Rotational temperatures (Kelvin)      0.22754     0.21891     0.12273
 Rotational constants (GHZ):           4.74124     4.56126     2.55726
 Zero-point vibrational energy     382871.9 (Joules/Mol)
                                   91.50859 (Kcal/Mol)
 Warning -- explicit consideration of   5 degrees of freedom as
           vibrations may cause significant error
 Vibrational temperatures:    237.13   394.83   577.86   658.58   724.26
          (Kelvin)            943.89  1052.96  1182.53  1191.58  1267.00
                             1308.53  1346.11  1450.75  1467.26  1506.87
                             1541.28  1583.23  1670.50  1673.19  1798.05
                             1827.21  1861.76  1955.86  1970.59  1971.43
                             1993.73  2051.31  2122.20  2130.88  2148.30
                             2160.08  2461.66  4302.99  4303.15  4331.64
                             4340.54  4366.30  4366.81  4402.55  4406.53
                             4506.43  4539.46

 Zero-point correction=                           0.145828 (Hartree/Particle)
 Thermal correction to Energy=                    0.151344
 Thermal correction to Enthalpy=                  0.152288
 Thermal correction to Gibbs Free Energy=         0.117840
 Sum of electronic and zero-point Energies=           -234.594946
 Sum of electronic and thermal Energies=              -234.589431
 Sum of electronic and thermal Enthalpies=            -234.588486
 Sum of electronic and thermal Free Energies=         -234.622935

                     E (Thermal)             CV                S
                      KCal/Mol        Cal/Mol-Kelvin    Cal/Mol-Kelvin
 Total                   94.970             21.497             72.502
 Electronic               0.000              0.000              0.000
 Translational            0.889              2.981             39.129
 Rotational               0.889              2.981             24.789
 Vibrational             93.192             15.535              8.584
 Vibration     1          0.623              1.886              2.494
 Vibration     2          0.677              1.721              1.568
 Vibration     3          0.767              1.467              0.957
 Vibration     4          0.816              1.344              0.773
 Vibration     5          0.859              1.243              0.650

 Optimization completed.
    -- Stationary point found.
 Normal termination of Gaussian 16 at Fri Jun 17 20:16:41 2022.
