 Gaussian 16, Revision B.01,
 Gaussian 16:  ES64L-G16RevB.01 20-Dec-2017

 --------------------
 # b3lyp/gen opt freq
 --------------------

 ---------------------------
 cycloheptene, B3LYP/pcseg-2
 ---------------------------
 Symbolic Z-matrix:
 Charge =  0 Multiplicity = 1

 SCF Done:  E(RB3LYP) =  -274.062607962     A.U. after   11 cycles
 SCF Done:  E(RB3LYP) =  -274.062762946     A.U. after    8 cycles
 SCF Done:  E(RB3LYP) =  -274.062764503     A.U. after    6 cycles
 SCF Done:  E(RB3LYP) =  -274.062765015     A.U. after    6 cycles
 SCF Done:  E(RB3LYP) =  -274.062765615     A.U. after    6 cycles
 SCF Done:  E(RB3LYP) =  -274.062765856     A.U. after    6 cycles
 SCF Done:  E(RB3LYP) =  -274.062765944     A.U. after    5 cycles
 Optimization completed.
    -- Stationary point found.
 Normal termination of Gaussian 16 at Thu Jun 16 16:50:37 2022.

 ------------------------------------------------------------------
 #N Geom=AllCheck Guess=TCheck SCRF=Check GenChk RB3LYP/ChkBas Freq
 ------------------------------------------------------------------

 Structure from the checkpoint file:  "/wrk/irikura/Gau-6846.chk"
 ---------------------------
 cycloheptene, B3LYP/pcseg-2
 ---------------------------
 Charge =  0 Multiplicity = 1

                         Standard orientation:
 ---------------------------------------------------------------------
 Center     Atomic      Atomic             Coordinates (Angstroms)
 Number     Number       Type             X           Y           Z
 ---------------------------------------------------------------------
      1          6           0       -0.811684   -1.424028   -0.000000
      2          6           0        0.753015    1.353103    0.665698
      3          6           0        0.753015    1.353103   -0.665698
      4          6           0       -0.122372    0.520197    1.568446
      5          6           0       -0.122372    0.520197   -1.568446
      6          6           0       -0.122372   -0.991603    1.296747
      7          6           0       -0.122372   -0.991603   -1.296747
      8          1           0       -0.891859   -2.514404   -0.000000
      9          1           0       -1.840647   -1.046668   -0.000000
     10          1           0        1.437046    2.031824    1.164041
     11          1           0        1.437046    2.031824   -1.164041
     12          1           0        0.188033    0.685946    2.601456
     13          1           0       -1.155816    0.884536    1.509002
     14          1           0        0.188033    0.685946   -2.601456
     15          1           0       -1.155816    0.884536   -1.509002
     16          1           0       -0.626707   -1.484203    2.132404
     17          1           0        0.909128   -1.355664    1.300508
     18          1           0       -0.626707   -1.484203   -2.132404
     19          1           0        0.909128   -1.355664   -1.300508
 ---------------------------------------------------------------------

 SCF Done:  E(RB3LYP) =  -274.062765944     A.U. after    1 cycles

 The electronic state is 1-A'.
 Alpha  occ. eigenvalues --  -10.16760 -10.16760 -10.16457 -10.16456 -10.16316
 Alpha  occ. eigenvalues --  -10.16236 -10.16143  -0.82564  -0.76177  -0.76128
 Alpha  occ. eigenvalues --   -0.65562  -0.63974  -0.56233  -0.51271  -0.49177
 Alpha  occ. eigenvalues --   -0.46246  -0.43281  -0.42766  -0.40765  -0.40361
 Alpha  occ. eigenvalues --   -0.36471  -0.35786  -0.33042  -0.32891  -0.31874
 Alpha  occ. eigenvalues --   -0.31067  -0.24459
 Alpha virt. eigenvalues --    0.00273   0.01231   0.03418   0.03775   0.03926
 Alpha virt. eigenvalues --    0.06513   0.06930   0.07090   0.08240   0.09409
 Alpha virt. eigenvalues --    0.10595   0.10788   0.11462   0.11605   0.15955

 Mulliken charges:
               1
     1  C   -0.058675
     2  C   -0.086585
     3  C   -0.086585
     4  C    0.003633
     5  C    0.003633
     6  C   -0.021765
     7  C   -0.021765
     8  H    0.023770
     9  H    0.012203
    10  H    0.022080
    11  H    0.022080
    12  H    0.019886
    13  H    0.033293
    14  H    0.019886
    15  H    0.033293
    16  H    0.025229
    17  H    0.015581
    18  H    0.025229
    19  H    0.015581
 Sum of Mulliken charges =  -0.00000

 Dipole moment (field-independent basis, Debye):
    X=             -0.2580    Y=             -0.3062    Z=              0.0000  Tot=              0.4004
 Quadrupole moment (field-independent basis, Debye-Ang):
   XX=            -45.9686   YY=            -46.5269   ZZ=            -44.0701
   XY=              0.6110   XZ=             -0.0000   YZ=              0.0000

  Exact polarizability:  71.308   7.090  80.118  -0.000  -0.000  92.996
 Approx polarizability: 107.462   3.488 106.797   0.000  -0.000 133.037

                      1                      2                      3
                     A'                     A"                     A"
 Frequencies --     90.1811               200.3516               316.7889
 Red. masses --      1.9022                 2.0080                 2.6598
 Frc consts  --      0.0091                 0.0475                 0.1573
 IR Inten    --      0.1213                 0.0198                 0.2048

                      4                      5                      6
                     A'                     A'                     A"
 Frequencies --    334.0907               346.9446               476.8082
 Red. masses --      2.2447                 2.2496                 2.6911
 Frc consts  --      0.1476                 0.1595                 0.3605
 IR Inten    --      0.0099                 0.8078                 0.1533

                      7                      8                      9
                     A'                     A"                     A'
 Frequencies --    478.2810               671.6755               702.0762
 Red. masses --      1.4133                 1.9440                 1.4247
 Frc consts  --      0.1905                 0.5167                 0.4138
 IR Inten    --      1.7862                 0.1188                30.2261

                     10                     11                     12
                     A'                     A"                     A'
 Frequencies --    749.7513               830.9897               846.6600
 Red. masses --      2.6818                 2.1639                 1.4075
 Frc consts  --      0.8882                 0.8804                 0.5945
 IR Inten    --      1.7344                 2.6317                 9.9892

                     13                     14                     15
                     A'                     A"                     A'
 Frequencies --    875.8487               904.0323               973.5393
 Red. masses --      2.8767                 2.0443                 2.3400
 Frc consts  --      1.3002                 0.9844                 1.3067
 IR Inten    --      0.3547                 0.7480                 6.0996

                     16                     17                     18
                     A"                     A"                     A"
 Frequencies --    978.1478              1008.7804              1037.2045
 Red. masses --      1.6499                 1.2798                 2.0994
 Frc consts  --      0.9301                 0.7673                 1.3307
 IR Inten    --      0.2357                 0.0207                 0.6679

                     19                     20                     21
                     A'                     A'                     A"
 Frequencies --   1052.1468              1097.3204              1120.0519
 Red. masses --      2.0405                 1.8158                 2.1690
 Frc consts  --      1.3309                 1.2882                 1.6032
 IR Inten    --      0.2388                 2.7168                 1.5575

                     22                     23                     24
                     A"                     A"                     A'
 Frequencies --   1164.3733              1233.8902              1244.7677
 Red. masses --      1.2311                 1.1926                 1.2553
 Frc consts  --      0.9834                 1.0697                 1.1460
 IR Inten    --      2.0615                 2.3562                 1.6795

                     25                     26                     27
                     A'                     A'                     A"
 Frequencies --   1267.0075              1301.7032              1302.4004
 Red. masses --      1.1151                 1.1523                 1.1754
 Frc consts  --      1.0547                 1.1503                 1.1747
 IR Inten    --      0.3061                 0.0423                 7.5771

                     28                     29                     30
                     A'                     A"                     A"
 Frequencies --   1364.7164              1369.4255              1377.5146
 Red. masses --      1.4593                 1.3526                 1.2826
 Frc consts  --      1.6013                 1.4945                 1.4339
 IR Inten    --      0.8369                 0.2040                 0.0379

                     31                     32                     33
                     A"                     A'                     A"
 Frequencies --   1394.4012              1399.3493              1433.0619
 Red. masses --      1.4724                 1.3857                 1.4239
 Frc consts  --      1.6867                 1.5987                 1.7229
 IR Inten    --      0.1647                 1.3403                 0.1215

                     34                     35                     36
                     A'                     A"                     A"
 Frequencies --   1481.1004              1482.6195              1483.8347
 Red. masses --      1.0965                 1.0890                 1.1027
 Frc consts  --      1.4171                 1.4104                 1.4304
 IR Inten    --      3.1942                 0.9616                 5.4830

                     37                     38                     39
                     A'                     A'                     A'
 Frequencies --   1490.6115              1495.4792              1710.5125
 Red. masses --      1.0858                 1.0904                 6.4774
 Frc consts  --      1.4214                 1.4368                11.1661
 IR Inten    --     13.1424                 3.5771                 3.6605

                     40                     41                     42
                     A'                     A"                     A'
 Frequencies --   2982.4856              2984.4811              2996.1537
 Red. masses --      1.0713                 1.0716                 1.0664
 Frc consts  --      5.6147                 5.6236                 5.6404
 IR Inten    --     30.8046                11.6109                22.8562

                     43                     44                     45
                     A'                     A"                     A'
 Frequencies --   3009.8236              3011.5910              3040.1740
 Red. masses --      1.0638                 1.0594                 1.0915
 Frc consts  --      5.6781                 5.6612                 5.9439
 IR Inten    --     18.4488                24.6091                69.2996

                     46                     47                     48
                     A"                     A'                     A"
 Frequencies --   3045.2521              3051.3305              3055.5356
 Red. masses --      1.1040                 1.1030                 1.0885
 Frc consts  --      6.0320                 6.0509                 5.9878
 IR Inten    --     20.8523                81.7506                77.4853

                     49                     50                     51
                     A'                     A"                     A'
 Frequencies --   3057.3930              3125.8457              3150.0071
 Red. masses --      1.0889                 1.0842                 1.0945
 Frc consts  --      5.9972                 6.2415                 6.3986
 IR Inten    --      6.8243                 9.7944                40.2655

 - Thermochemistry -
 -------------------
 Temperature   298.150 Kelvin.  Pressure   1.00000 Atm.
 Atom     1 has atomic number  6 and mass  12.00000

 Molecular mass:    96.09390 amu.
 Principal axes and moments of inertia in atomic units:
                           1         2         3
     Eigenvalues --   567.43639 573.554721031.51519
           X            0.39708   0.00000   0.91779
           Y            0.91779   0.00000  -0.39708
           Z            0.00000   1.00000   0.00000
 This molecule is an asymmetric top.
 Rotational symmetry number  1.
 Warning -- assumption of classical behavior for rotation
           may cause significant error
 Rotational temperatures (Kelvin)      0.15264     0.15101     0.08397
 Rotational constants (GHZ):           3.18052     3.14659     1.74960
 Zero-point vibrational energy     458160.9 (Joules/Mol)
                                  109.50307 (Kcal/Mol)
 Warning -- explicit consideration of   7 degrees of freedom as
           vibrations may cause significant error
 Vibrational temperatures:    129.75   288.26   455.79   480.68   499.18
          (Kelvin)            686.02   688.14   966.39  1010.13  1078.72
                             1195.61  1218.15  1260.15  1300.70  1400.71
                             1407.34  1451.41  1492.31  1513.80  1578.80
                             1611.50  1675.27  1775.29  1790.94  1822.94
                             1872.86  1873.86  1963.52  1970.30  1981.94
                             2006.23  2013.35  2061.86  2130.97  2133.16
                             2134.91  2144.66  2151.66  2461.05  4291.13
                             4294.00  4310.80  4330.46  4333.01  4374.13
                             4381.44  4390.18  4396.23  4398.91  4497.39
                             4532.16

 Zero-point correction=                           0.174504 (Hartree/Particle)
 Thermal correction to Energy=                    0.181240
 Thermal correction to Enthalpy=                  0.182184
 Thermal correction to Gibbs Free Energy=         0.143995
 Sum of electronic and zero-point Energies=           -273.888262
 Sum of electronic and thermal Energies=              -273.881526
 Sum of electronic and thermal Enthalpies=            -273.880582
 Sum of electronic and thermal Free Energies=         -273.918771

                     E (Thermal)             CV                S
                      KCal/Mol        Cal/Mol-Kelvin    Cal/Mol-Kelvin
 Total                  113.730             26.363             80.376
 Electronic               0.000              0.000              0.000
 Translational            0.889              2.981             39.599
 Rotational               0.889              2.981             27.309
 Vibrational            111.952             20.401             13.468
 Vibration     1          0.602              1.956              3.656
 Vibration     2          0.638              1.839              2.130
 Vibration     3          0.704              1.642              1.327
 Vibration     4          0.716              1.607              1.240
 Vibration     5          0.725              1.581              1.180
 Vibration     6          0.833              1.301              0.719
 Vibration     7          0.835              1.298              0.715

 Optimization completed.
    -- Stationary point found.
 Normal termination of Gaussian 16 at Thu Jun 16 16:59:30 2022.
