 Gaussian 16, Revision B.01,

 ---------------------------------------
 # b3lyp/gen opt freq CPHF(Grid=OneStep)
 ---------------------------------------

 ---------------------------
 cycloheptene, B3LYP/pcseg-2
 ---------------------------
 Symbolic Z-matrix:
 Charge =  0 Multiplicity = 1

 SCF Done:  E(RB3LYP) =  -274.062765944     A.U. after   11 cycles
 Optimization completed.
    -- Stationary point found.
 Normal termination of Gaussian 16 at Sat Sep 30 20:06:11 2023.

 ------------------------------------------------------------------
 #N Geom=AllCheck Guess=TCheck SCRF=Check GenChk RB3LYP/ChkBas Freq
 ------------------------------------------------------------------

 Structure from the checkpoint file:  "cycloheptene.chk"
 ---------------------------
 cycloheptene, B3LYP/pcseg-2
 ---------------------------
 Charge =  0 Multiplicity = 1

 SCF Done:  E(RB3LYP) =  -274.062765944     A.U. after    1 cycles

  Exact polarizability:  71.310   7.090  80.118  -0.000  -0.000  92.995
 Approx polarizability: 107.462   3.488 106.797   0.000  -0.000 133.037

                      1                      2                      3
                     A'                     A"                     A"
 Frequencies --     90.1815               200.3548               316.7895
 Red. masses --      1.9022                 2.0080                 2.6598
 Frc consts  --      0.0091                 0.0475                 0.1573
 IR Inten    --      0.1214                 0.0198                 0.2048

                      4                      5                      6
                     A'                     A'                     A"
 Frequencies --    334.0897               346.9438               476.8112
 Red. masses --      2.2445                 2.2498                 2.6911
 Frc consts  --      0.1476                 0.1596                 0.3605
 IR Inten    --      0.0099                 0.8080                 0.1530

                      7                      8                      9
                     A'                     A"                     A'
 Frequencies --    478.2804               671.6764               702.0747
 Red. masses --      1.4133                 1.9440                 1.4247
 Frc consts  --      0.1905                 0.5167                 0.4137
 IR Inten    --      1.7866                 0.1188                30.2315

                     10                     11                     12
                     A'                     A"                     A'
 Frequencies --    749.7502               830.9905               846.6599
 Red. masses --      2.6819                 2.1639                 1.4075
 Frc consts  --      0.8882                 0.8804                 0.5945
 IR Inten    --      1.7341                 2.6329                 9.9885

                     13                     14                     15
                     A'                     A"                     A'
 Frequencies --    875.8473               904.0374               973.5383
 Red. masses --      2.8767                 2.0443                 2.3400
 Frc consts  --      1.3002                 0.9844                 1.3067
 IR Inten    --      0.3549                 0.7470                 6.1004

                     16                     17                     18
                     A"                     A"                     A"
 Frequencies --    978.1529              1008.7785              1037.2049
 Red. masses --      1.6499                 1.2798                 2.0994
 Frc consts  --      0.9301                 0.7673                 1.3307
 IR Inten    --      0.2365                 0.0206                 0.6684

                     19                     20                     21
                     A'                     A'                     A"
 Frequencies --   1052.1476              1097.3202              1120.0532
 Red. masses --      2.0406                 1.8158                 2.1690
 Frc consts  --      1.3309                 1.2882                 1.6032
 IR Inten    --      0.2389                 2.7171                 1.5577

                     22                     23                     24
                     A"                     A"                     A'
 Frequencies --   1164.3777              1233.8927              1244.7673
 Red. masses --      1.2311                 1.1926                 1.2553
 Frc consts  --      0.9834                 1.0698                 1.1460
 IR Inten    --      2.0629                 2.3576                 1.6805

                     25                     26                     27
                     A'                     A'                     A"
 Frequencies --   1267.0075              1301.7036              1302.4005
 Red. masses --      1.1151                 1.1523                 1.1754
 Frc consts  --      1.0547                 1.1503                 1.1747
 IR Inten    --      0.3062                 0.0422                 7.5798

                     28                     29                     30
                     A'                     A"                     A"
 Frequencies --   1364.7163              1369.4270              1377.5142
 Red. masses --      1.4593                 1.3526                 1.2826
 Frc consts  --      1.6013                 1.4945                 1.4339
 IR Inten    --      0.8368                 0.2036                 0.0378

                     31                     32                     33
                     A"                     A'                     A"
 Frequencies --   1394.4018              1399.3487              1433.0648
 Red. masses --      1.4724                 1.3857                 1.4239
 Frc consts  --      1.6867                 1.5987                 1.7229
 IR Inten    --      0.1649                 1.3405                 0.1223

                     34                     35                     36
                     A'                     A"                     A"
 Frequencies --   1481.1107              1482.6374              1483.8436
 Red. masses --      1.0965                 1.0889                 1.1027
 Frc consts  --      1.4172                 1.4103                 1.4305
 IR Inten    --      3.1938                 0.9368                 5.5020

                     37                     38                     39
                     A'                     A'                     A'
 Frequencies --   1490.6137              1495.4786              1710.5077
 Red. masses --      1.0858                 1.0904                 6.4774
 Frc consts  --      1.4214                 1.4368                11.1661
 IR Inten    --     13.1437                 3.5732                 3.6629

                     40                     41                     42
                     A'                     A"                     A'
 Frequencies --   2982.4904              2984.5098              2996.1684
 Red. masses --      1.0713                 1.0716                 1.0664
 Frc consts  --      5.6147                 5.6236                 5.6405
 IR Inten    --     30.8384                11.6353                22.8349

                     43                     44                     45
                     A'                     A"                     A'
 Frequencies --   3009.8258              3011.5930              3040.1778
 Red. masses --      1.0638                 1.0594                 1.0915
 Frc consts  --      5.6781                 5.6612                 5.9439
 IR Inten    --     18.4549                24.6189                69.2804

                     46                     47                     48
                     A"                     A'                     A"
 Frequencies --   3045.2551              3051.3341              3055.5364
 Red. masses --      1.1040                 1.1030                 1.0885
 Frc consts  --      6.0320                 6.0509                 5.9878
 IR Inten    --     20.8620                81.7448                77.4487

                     49                     50                     51
                     A'                     A"                     A'
 Frequencies --   3057.3918              3125.8463              3150.0082
 Red. masses --      1.0889                 1.0842                 1.0945
 Frc consts  --      5.9972                 6.2415                 6.3986
 IR Inten    --      6.8307                 9.7942                40.2646

 - Thermochemistry -
 -------------------
 Temperature   298.150 Kelvin.  Pressure   1.00000 Atm.
 Atom     1 has atomic number  6 and mass  12.00000

 Molecular mass:    96.09390 amu.
 Principal axes and moments of inertia in atomic units:
                           1         2         3
     Eigenvalues --   567.43622 573.554631031.51493
           X            0.39708  -0.00000   0.91779
           Y            0.91779  -0.00000  -0.39708
           Z            0.00000   1.00000   0.00000
 This molecule is an asymmetric top.
 Rotational symmetry number  1.
 Warning -- assumption of classical behavior for rotation
           may cause significant error
 Rotational temperatures (Kelvin)      0.15264     0.15101     0.08397
 Rotational constants (GHZ):           3.18052     3.14659     1.74960
 Zero-point vibrational energy     458161.6 (Joules/Mol)
                                  109.50324 (Kcal/Mol)
 Warning -- explicit consideration of   7 degrees of freedom as
           vibrations may cause significant error
 Vibrational temperatures:    129.75   288.27   455.79   480.68   499.17
          (Kelvin)            686.03   688.14   966.39  1010.13  1078.72
                             1195.61  1218.15  1260.15  1300.71  1400.70
                             1407.34  1451.41  1492.31  1513.81  1578.80
                             1611.51  1675.28  1775.30  1790.94  1822.94
                             1872.86  1873.86  1963.52  1970.30  1981.94
                             2006.23  2013.35  2061.86  2130.99  2133.18
                             2134.92  2144.66  2151.66  2461.04  4291.14
                             4294.04  4310.82  4330.47  4333.01  4374.14
                             4381.44  4390.19  4396.24  4398.90  4497.40
                             4532.16

 Zero-point correction=                           0.174505 (Hartree/Particle)
 Thermal correction to Energy=                    0.181240
 Thermal correction to Enthalpy=                  0.182184
 Thermal correction to Gibbs Free Energy=         0.143995
 Sum of electronic and zero-point Energies=           -273.888261
 Sum of electronic and thermal Energies=              -273.881526
 Sum of electronic and thermal Enthalpies=            -273.880582
 Sum of electronic and thermal Free Energies=         -273.918771

                     E (Thermal)             CV                S
                      KCal/Mol        Cal/Mol-Kelvin    Cal/Mol-Kelvin
 Total                  113.730             26.363             80.376
 Electronic               0.000              0.000              0.000
 Translational            0.889              2.981             39.599
 Rotational               0.889              2.981             27.309
 Vibrational            111.952             20.401             13.468
 Vibration     1          0.602              1.956              3.656
 Vibration     2          0.638              1.839              2.130
 Vibration     3          0.704              1.642              1.327
 Vibration     4          0.716              1.607              1.240
 Vibration     5          0.725              1.581              1.180
 Vibration     6          0.833              1.301              0.719
 Vibration     7          0.835              1.298              0.715

 Optimization completed.
    -- Stationary point found.
 Normal termination of Gaussian 16 at Sat Sep 30 20:38:51 2023.
 Gaussian 16:  ES64L-G16RevB.01 20-Dec-2017

 ---------------------------------
 # rohf/gen geom=check guess=check
 ---------------------------------

 ------------------------------
 cycloheptene, ROHF/cc-pVTZ-F12
 ------------------------------
 Structure from the checkpoint file:  "cycloheptene.chk"
 Charge =  0 Multiplicity = 1

                         Standard orientation:
 ---------------------------------------------------------------------
 Center     Atomic      Atomic             Coordinates (Angstroms)
 Number     Number       Type             X           Y           Z
 ---------------------------------------------------------------------
      1          6           0       -0.811684   -1.424028    0.000000
      2          6           0        0.753015    1.353103    0.665698
      3          6           0        0.753015    1.353103   -0.665698
      4          6           0       -0.122372    0.520197    1.568446
      5          6           0       -0.122372    0.520197   -1.568446
      6          6           0       -0.122372   -0.991603    1.296747
      7          6           0       -0.122372   -0.991603   -1.296747
      8          1           0       -0.891859   -2.514404    0.000000
      9          1           0       -1.840647   -1.046668    0.000000
     10          1           0        1.437046    2.031824    1.164041
     11          1           0        1.437046    2.031824   -1.164041
     12          1           0        0.188033    0.685946    2.601456
     13          1           0       -1.155816    0.884536    1.509002
     14          1           0        0.188033    0.685946   -2.601456
     15          1           0       -1.155816    0.884536   -1.509002
     16          1           0       -0.626707   -1.484203    2.132404
     17          1           0        0.909128   -1.355664    1.300508
     18          1           0       -0.626707   -1.484203   -2.132404
     19          1           0        0.909128   -1.355664   -1.300508
 ---------------------------------------------------------------------

 SCF Done:  E(ROHF) =  -272.152969876     A.U. after   10 cycles

 The electronic state is 1-A'.
 Alpha  occ. eigenvalues --  -11.21883 -11.21880 -11.21712 -11.21541 -11.21524
 Alpha  occ. eigenvalues --  -11.21513 -11.21361  -1.10844  -1.03010  -1.02593
 Alpha  occ. eigenvalues --   -0.89167  -0.86883  -0.76709  -0.70194  -0.66299
 Alpha  occ. eigenvalues --   -0.62751  -0.58925  -0.58503  -0.56004  -0.55273
 Alpha  occ. eigenvalues --   -0.50884  -0.49479  -0.46348  -0.46344  -0.45062
 Alpha  occ. eigenvalues --   -0.44154  -0.33943
 Alpha virt. eigenvalues --    0.04639   0.04934   0.05236   0.05285   0.06607
 Alpha virt. eigenvalues --    0.06749   0.07493   0.08896   0.09512   0.10394
 Alpha virt. eigenvalues --    0.10817   0.11002   0.11649   0.12191   0.12275

 Mulliken charges and spin densities:
               1          2
     1  C   -0.136969  -0.000000
     2  C   -0.178016  -0.000000
     3  C   -0.178016   0.000000
     4  C   -0.157704  -0.000000
     5  C   -0.157704  -0.000000
     6  C   -0.115177  -0.000000
     7  C   -0.115177  -0.000000
     8  H    0.068069  -0.000000
     9  H    0.065310  -0.000000
    10  H    0.140481  -0.000000
    11  H    0.140481  -0.000000
    12  H    0.085468  -0.000000
    13  H    0.086397  -0.000000
    14  H    0.085468  -0.000000
    15  H    0.086397  -0.000000
    16  H    0.068116  -0.000000
    17  H    0.072230  -0.000000
    18  H    0.068116  -0.000000
    19  H    0.072230  -0.000000
 Sum of Mulliken charges =  -0.00000  -0.00000

 Dipole moment (field-independent basis, Debye):
    X=             -0.2606    Y=             -0.3057    Z=             -0.0000  Tot=              0.4017
 Quadrupole moment (field-independent basis, Debye-Ang):
   XX=            -45.9663   YY=            -46.6236   ZZ=            -43.8801
   XY=              0.6678   XZ=             -0.0000   YZ=             -0.0000

 Normal termination of Gaussian 16 at Sat Sep 30 20:47:49 2023.
