 Gaussian 16, Revision B.01,
 Gaussian 16:  ES64L-G16RevB.01 20-Dec-2017

 --------------------
 # b3lyp/gen opt freq
 --------------------

 -----------------------------
 cyclobutadiene, B3LYP/pcseg-2
 -----------------------------
 Symbolic Z-matrix:
 Charge =  0 Multiplicity = 1

 SCF Done:  E(RB3LYP) =  -154.739607766     A.U. after   10 cycles
 SCF Done:  E(RB3LYP) =  -154.739670299     A.U. after    6 cycles
 SCF Done:  E(RB3LYP) =  -154.739673195     A.U. after    5 cycles
 SCF Done:  E(RB3LYP) =  -154.739673781     A.U. after    6 cycles
 Optimization completed.
    -- Stationary point found.
 Normal termination of Gaussian 16 at Wed Jun 15 20:59:58 2022.

 ------------------------------------------------------------------
 #N Geom=AllCheck Guess=TCheck SCRF=Check GenChk RB3LYP/ChkBas Freq
 ------------------------------------------------------------------

 Structure from the checkpoint file:  "/wrk/irikura/Gau-23072.chk"
 -----------------------------
 cyclobutadiene, B3LYP/pcseg-2
 -----------------------------
 Charge =  0 Multiplicity = 1

                         Standard orientation:
 ---------------------------------------------------------------------
 Center     Atomic      Atomic             Coordinates (Angstroms)
 Number     Number       Type             X           Y           Z
 ---------------------------------------------------------------------
      1          6           0       -0.000000    0.664584    0.787054
      2          6           0        0.000000    0.664584   -0.787054
      3          6           0       -0.000000   -0.664584    0.787054
      4          6           0       -0.000000   -0.664584   -0.787054
      5          1           0       -0.000000    1.428861    1.548225
      6          1           0        0.000000    1.428861   -1.548225
      7          1           0       -0.000000   -1.428861    1.548225
      8          1           0       -0.000000   -1.428861   -1.548225
 ---------------------------------------------------------------------

 SCF Done:  E(RB3LYP) =  -154.739673781     A.U. after    1 cycles

 The electronic state is 1-AG.
 Alpha  occ. eigenvalues --  -10.18612 -10.18595 -10.18517 -10.18501  -0.87188
 Alpha  occ. eigenvalues --   -0.67310  -0.60942  -0.52139  -0.51552  -0.40144
 Alpha  occ. eigenvalues --   -0.39500  -0.36107  -0.32185  -0.19967
 Alpha virt. eigenvalues --   -0.06845   0.03226   0.03930   0.04895   0.06235
 Alpha virt. eigenvalues --    0.07125   0.10531   0.14286   0.15590   0.15840
 Alpha virt. eigenvalues --    0.16161   0.21035   0.22180   0.23861   0.24707

 Mulliken charges:
               1
     1  C   -0.034057
     2  C   -0.034057
     3  C   -0.034057
     4  C   -0.034057
     5  H    0.034057
     6  H    0.034057
     7  H    0.034057
     8  H    0.034057
 Sum of Mulliken charges =   0.00000

 Dipole moment (field-independent basis, Debye):
    X=              0.0000    Y=              0.0000    Z=             -0.0000  Tot=              0.0000
 Quadrupole moment (field-independent basis, Debye-Ang):
   XX=            -27.0519   YY=            -21.1256   ZZ=            -22.5828
   XY=              0.0000   XZ=              0.0000   YZ=             -0.0000

  Exact polarizability:  28.288  -0.000  52.033   0.000   0.000  42.650
 Approx polarizability:  41.435   0.000  93.105  -0.000  -0.000  54.169

                      1                      2                      3
                     AU                     B3U                    B2G
 Frequencies --    538.9998               590.5850               606.8506
 Red. masses --      2.4316                 1.0848                 1.2999
 Frc consts  --      0.4162                 0.2229                 0.2820
 IR Inten    --      0.0000               145.9267                 0.0000

                      4                      5                      6
                     B2U                    B3G                    AU
 Frequencies --    701.2771               852.3723               898.2763
 Red. masses --      2.6103                 5.9315                 1.5053
 Frc consts  --      0.7563                 2.5391                 0.7156
 IR Inten    --      9.3234                 0.0000                 0.0000

                      7                      8                      9
                     B1G                    AG                     B1U
 Frequencies --    902.2379               953.4683              1061.6538
 Red. masses --      1.3549                 1.8342                 1.0932
 Frc consts  --      0.6498                 0.9824                 0.7260
 IR Inten    --      0.0000                 0.0000                 0.2520

                     10                     11                     12
                     AG                     B3G                    B2U
 Frequencies --   1111.9868              1194.8869              1265.5438
 Red. masses --      1.7622                 1.3568                 1.4422
 Frc consts  --      1.2838                 1.1414                 1.3609
 IR Inten    --      0.0000                 0.0000                39.7373

                     13                     14                     15
                     AG                     B1U                    B3G
 Frequencies --   1622.8101              1630.0856              3200.0993
 Red. masses --      6.9092                 5.4559                 1.0800
 Frc consts  --     10.7205                 8.5416                 6.5165
 IR Inten    --      0.0000                 7.0576                 0.0000

                     16                     17                     18
                     B2U                    B1U                    AG
 Frequencies --   3215.4119              3235.7487              3245.7809
 Red. masses --      1.0859                 1.1119                 1.1189
 Frc consts  --      6.6148                 6.8591                 6.9452
 IR Inten    --     11.2866                17.8206                 0.0000

 - Thermochemistry -
 -------------------
 Temperature   298.150 Kelvin.  Pressure   1.00000 Atm.
 Atom     1 has atomic number  6 and mass  12.00000

 Molecular mass:    52.03130 amu.
 Principal axes and moments of inertia in atomic units:
                           1         2         3
     Eigenvalues --   105.09909 140.68848 245.78757
           X            0.00000   0.00000   1.00000
           Y            0.00000   1.00000  -0.00000
           Z            1.00000   0.00000   0.00000
 This molecule is an asymmetric top.
 Rotational symmetry number  4.
 Rotational temperatures (Kelvin)      0.82412     0.61564     0.35239
 Rotational constants (GHZ):          17.17181    12.82792     7.34269
 Zero-point vibrational energy     160467.5 (Joules/Mol)
                                   38.35266 (Kcal/Mol)
 Warning -- explicit consideration of   3 degrees of freedom as
           vibrations may cause significant error
 Vibrational temperatures:    775.50   849.72   873.12  1008.98  1226.37
          (Kelvin)           1292.42  1298.12  1371.83  1527.48  1599.90
                             1719.18  1820.84  2334.86  2345.33  4604.23
                             4626.26  4655.52  4669.95

 Zero-point correction=                           0.061119 (Hartree/Particle)
 Thermal correction to Energy=                    0.064887
 Thermal correction to Enthalpy=                  0.065831
 Thermal correction to Gibbs Free Energy=         0.037141
 Sum of electronic and zero-point Energies=           -154.678555
 Sum of electronic and thermal Energies=              -154.674787
 Sum of electronic and thermal Enthalpies=            -154.673843
 Sum of electronic and thermal Free Energies=         -154.702533

                     E (Thermal)             CV                S
                      KCal/Mol        Cal/Mol-Kelvin    Cal/Mol-Kelvin
 Total                   40.717             13.074             60.384
 Electronic               0.000              0.000              0.000
 Translational            0.889              2.981             37.771
 Rotational               0.889              2.981             20.057
 Vibrational             38.940              7.113              2.556
 Vibration     1          0.894              1.164              0.567
 Vibration     2          0.948              1.052              0.466
 Vibration     3          0.966              1.017              0.438

 Optimization completed.
    -- Stationary point found.
 Normal termination of Gaussian 16 at Wed Jun 15 21:00:20 2022.
