 Gaussian 16, Revision B.01,

 ---------------------------------------
 # b3lyp/gen opt freq CPHF(Grid=OneStep)
 ---------------------------------------

 --------------------------
 cyclobutene, B3LYP/pcseg-2
 --------------------------
 Symbolic Z-matrix:
 Charge =  0 Multiplicity = 1

 SCF Done:  E(RB3LYP) =  -156.036010965     A.U. after   11 cycles
 Optimization completed.
    -- Stationary point found.
 Normal termination of Gaussian 16 at Fri Sep 29 18:55:08 2023.

 ------------------------------------------------------------------
 #N Geom=AllCheck Guess=TCheck SCRF=Check GenChk RB3LYP/ChkBas Freq
 ------------------------------------------------------------------

 Structure from the checkpoint file:  "cyclobutene.chk"
 --------------------------
 cyclobutene, B3LYP/pcseg-2
 --------------------------
 Charge =  0 Multiplicity = 1

 SCF Done:  E(RB3LYP) =  -156.036010965     A.U. after    1 cycles

  Exact polarizability:  35.508  -0.000  53.084   0.000  -0.000  47.838
 Approx polarizability:  51.510   0.000  82.476  -0.000  -0.000  63.239

                      1                      2                      3
                     A2                     B1                     B2
 Frequencies --    326.5948               651.8146               865.7692
 Red. masses --      1.6158                 1.0678                 5.1726
 Frc consts  --      0.1015                 0.2673                 2.2843
 IR Inten    --      0.0000                50.9535                 0.3692

                      4                      5                      6
                     B1                     A1                     B2
 Frequencies --    868.1458               883.8665               896.9284
 Red. masses --      1.1292                 2.7140                 1.9545
 Frc consts  --      0.5014                 1.2492                 0.9264
 IR Inten    --     18.7541                 0.9560                14.4422

                      7                      8                      9
                     A2                     A1                     A2
 Frequencies --    945.3209               999.0646              1043.4434
 Red. masses --      1.2018                 1.7215                 1.8845
 Frc consts  --      0.6328                 1.0124                 1.2089
 IR Inten    --      0.0000                 0.0073                 0.0000

                     10                     11                     12
                     B1                     A1                     A2
 Frequencies --   1099.7277              1132.8558              1170.7083
 Red. masses --      1.1909                 1.7689                 1.1699
 Frc consts  --      0.8486                 1.3375                 0.9447
 IR Inten    --      6.9059                 0.1126                 0.0000

                     13                     14                     15
                     A1                     B2                     B2
 Frequencies --   1214.8712              1243.6052              1322.5540
 Red. masses --      1.4701                 1.3915                 1.8129
 Frc consts  --      1.2784                 1.2679                 1.8683
 IR Inten    --      2.1615                 4.0148                13.2537

                     16                     17                     18
                     B2                     A1                     A1
 Frequencies --   1469.1983              1487.1141              1632.7557
 Red. masses --      1.0810                 1.1422                 5.1308
 Frc consts  --      1.3747                 1.4882                 8.0589
 IR Inten    --      0.8891                 0.4567                 1.6824

                     19                     20                     21
                     B2                     A1                     A2
 Frequencies --   3033.8793              3039.0539              3068.3180
 Red. masses --      1.0553                 1.0579                 1.1083
 Frc consts  --      5.7229                 5.7569                 6.1477
 IR Inten    --     46.6705                49.6720                 0.0000

                     22                     23                     24
                     B1                     B2                     A1
 Frequencies --   3082.4131              3171.1940              3201.6936
 Red. masses --      1.1063                 1.0840                 1.1124
 Frc consts  --      6.1929                 6.4227                 6.7186
 IR Inten    --     48.6136                15.8573                21.5900

 - Thermochemistry -
 -------------------
 Temperature   298.150 Kelvin.  Pressure   1.00000 Atm.
 Atom     1 has atomic number  6 and mass  12.00000

 Molecular mass:    54.04695 amu.
 Principal axes and moments of inertia in atomic units:
                           1         2         3
     Eigenvalues --   138.84386 146.61548 262.85125
           X            0.00000   0.00000   1.00000
           Y            0.00000   1.00000   0.00000
           Z            1.00000   0.00000   0.00000
 This molecule is an asymmetric top.
 Rotational symmetry number  2.
 Rotational temperatures (Kelvin)      0.62382     0.59076     0.32952
 Rotational constants (GHZ):          12.99835    12.30935     6.86602
 Zero-point vibrational energy     226398.6 (Joules/Mol)
                                   54.11056 (Kcal/Mol)
 Warning -- explicit consideration of   1 degrees of freedom as
           vibrations may cause significant error
 Vibrational temperatures:    469.90   937.82  1245.65  1249.07  1271.69
          (Kelvin)           1290.48  1360.11  1437.43  1501.28  1582.26
                             1629.93  1684.39  1747.93  1789.27  1902.86
                             2113.85  2139.63  2349.17  4365.08  4372.52
                             4414.63  4434.91  4562.64  4606.52

 Zero-point correction=                           0.086231 (Hartree/Particle)
 Thermal correction to Energy=                    0.090052
 Thermal correction to Enthalpy=                  0.090996
 Thermal correction to Gibbs Free Energy=         0.061281
 Sum of electronic and zero-point Energies=           -155.949780
 Sum of electronic and thermal Energies=              -155.945959
 Sum of electronic and thermal Enthalpies=            -155.945015
 Sum of electronic and thermal Free Energies=         -155.974730

                     E (Thermal)             CV                S
                      KCal/Mol        Cal/Mol-Kelvin    Cal/Mol-Kelvin
 Total                   56.508             13.258             62.540
 Electronic               0.000              0.000              0.000
 Translational            0.889              2.981             37.884
 Rotational               0.889              2.981             21.819
 Vibrational             54.731              7.296              2.837
 Vibration     1          0.710              1.622              1.277

                           ! Non-Optimized Parameters !
 Normal termination of Gaussian 16 at Fri Sep 29 18:58:18 2023.
 Gaussian 16:  ES64L-G16RevB.01 20-Dec-2017

 ---------------------------------
 # rohf/gen geom=check guess=check
 ---------------------------------

 -----------------------------
 cyclobutene, ROHF/cc-pVTZ-F12
 -----------------------------
 Structure from the checkpoint file:  "cyclobutene.chk"
 Charge =  0 Multiplicity = 1

                         Standard orientation:
 ---------------------------------------------------------------------
 Center     Atomic      Atomic             Coordinates (Angstroms)
 Number     Number       Type             X           Y           Z
 ---------------------------------------------------------------------
      1          6           0        0.000000    0.667268    0.812434
      2          6           0       -0.000000   -0.667268    0.812434
      3          6           0        0.000000    0.784707   -0.698214
      4          6           0       -0.000000   -0.784707   -0.698214
      5          1           0        0.000000    1.412400    1.596418
      6          1           0       -0.000000   -1.412400    1.596418
      7          1           0        0.886126    1.243098   -1.140867
      8          1           0       -0.886126   -1.243098   -1.140867
      9          1           0       -0.886126    1.243098   -1.140867
     10          1           0        0.886126   -1.243098   -1.140867
 ---------------------------------------------------------------------

 SCF Done:  E(ROHF) =  -154.962658364     A.U. after   10 cycles

 The electronic state is 1-A1.
 Alpha  occ. eigenvalues --  -11.22576 -11.22471 -11.22450 -11.22376  -1.14549
 Alpha  occ. eigenvalues --   -0.89781  -0.87689  -0.70751  -0.67485  -0.62258
 Alpha  occ. eigenvalues --   -0.53380  -0.50610  -0.46281  -0.45531  -0.35125
 Alpha virt. eigenvalues --    0.05030   0.05363   0.05726   0.06983   0.07572
 Alpha virt. eigenvalues --    0.09261   0.09906   0.10446   0.11622   0.12069
 Alpha virt. eigenvalues --    0.12352   0.12577   0.15868   0.17268   0.18558

 Mulliken charges and spin densities:
               1          2
     1  C   -0.169519   0.000000
     2  C   -0.169519   0.000000
     3  C   -0.144437   0.000000
     4  C   -0.144437   0.000000
     5  H    0.157549   0.000000
     6  H    0.157549   0.000000
     7  H    0.078203   0.000000
     8  H    0.078203   0.000000
     9  H    0.078203   0.000000
    10  H    0.078203   0.000000
 Sum of Mulliken charges =  -0.00000   0.00000

 Dipole moment (field-independent basis, Debye):
    X=             -0.0000    Y=              0.0000    Z=             -0.1003  Tot=              0.1003
 Quadrupole moment (field-independent basis, Debye-Ang):
   XX=            -26.5340   YY=            -24.1663   ZZ=            -24.9747
   XY=             -0.0000   XZ=              0.0000   YZ=             -0.0000

 Normal termination of Gaussian 16 at Fri Sep 29 18:59:02 2023.
