 Gaussian 16, Revision B.01,

 ---------------------------------------
 # b3lyp/gen opt freq CPHF(Grid=OneStep)
 ---------------------------------------

 --------------------------
 cyclohexene, B3LYP/pcseg-2
 --------------------------
 Symbolic Z-matrix:
 Charge =  0 Multiplicity = 1

 SCF Done:  E(RB3LYP) =  -234.740774589     A.U. after   11 cycles
 Optimization completed.
    -- Stationary point found.
 Normal termination of Gaussian 16 at Wed Sep 27 14:59:58 2023.

 ------------------------------------------------------------------
 #N Geom=AllCheck Guess=TCheck SCRF=Check GenChk RB3LYP/ChkBas Freq
 ------------------------------------------------------------------

 Structure from the checkpoint file:  "cyclohexene.chk"
 --------------------------
 cyclohexene, B3LYP/pcseg-2
 --------------------------
 Charge =  0 Multiplicity = 1

 SCF Done:  E(RB3LYP) =  -234.740774589     A.U. after    1 cycles

  Exact polarizability:  56.453   3.836  80.532  -0.000   0.000  70.384
 Approx polarizability:  86.588   6.774 117.495   0.000  -0.000  91.890

                      1                      2                      3
                      B                      A                      A
 Frequencies --    164.8142               274.4183               401.6363
 Red. masses --      1.7563                 1.8070                 1.9231
 Frc consts  --      0.0281                 0.0802                 0.1828
 IR Inten    --      0.2843                 0.0349                 0.0191

                      4                      5                      6
                      B                      A                      B
 Frequencies --    457.7377               503.3826               656.0406
 Red. masses --      2.2803                 4.3466                 1.3261
 Frc consts  --      0.2815                 0.6489                 0.3363
 IR Inten    --      1.2187                 0.0232                27.0086

                      7                      8                      9
                      B                      A                      A
 Frequencies --    731.8448               821.9066               828.1890
 Red. masses --      1.6236                 2.5079                 1.6998
 Frc consts  --      0.5124                 0.9982                 0.6869
 IR Inten    --     10.5876                 0.3937                 0.4973

                     10                     11                     12
                      B                      A                      B
 Frequencies --    880.6118               909.4717               935.5912
 Red. masses --      2.4565                 2.4707                 1.4037
 Frc consts  --      1.1224                 1.2040                 0.7239
 IR Inten    --      5.9633                 1.0996                 5.8528

                     13                     14                     15
                      A                      B                      B
 Frequencies --   1008.3206              1019.7983              1047.3268
 Red. masses --      1.1813                 3.1084                 1.6424
 Frc consts  --      0.7076                 1.9046                 1.0614
 IR Inten    --      0.0011                 1.6031                 4.2679

                     16                     17                     18
                      A                      A                      A
 Frequencies --   1071.2453              1100.3986              1161.0571
 Red. masses --      2.0680                 1.9019                 1.0832
 Frc consts  --      1.3983                 1.3569                 0.8603
 IR Inten    --      0.1189                 0.0070                 0.0802

                     19                     20                     21
                      B                      A                      A
 Frequencies --   1162.9292              1249.7066              1269.9798
 Red. masses --      1.1668                 1.1929                 1.2802
 Frc consts  --      0.9297                 1.0977                 1.2165
 IR Inten    --      5.8947                 0.0304                 0.6044

                     22                     23                     24
                      B                      B                      B
 Frequencies --   1293.9918              1359.3925              1369.6306
 Red. masses --      1.1719                 1.3223                 1.7185
 Frc consts  --      1.1561                 1.4396                 1.8994
 IR Inten    --      2.3941                 1.8477                 1.1893

                     25                     26                     27
                      A                      A                      B
 Frequencies --   1370.2135              1385.7154              1425.7359
 Red. masses --      1.3448                 1.5425                 1.4980
 Frc consts  --      1.4876                 1.7451                 1.7941
 IR Inten    --      0.3119                 0.0085                 0.0455

                     28                     29                     30
                      A                      B                      B
 Frequencies --   1474.9960              1481.0303              1493.1454
 Red. masses --      1.0909                 1.0799                 1.0905
 Frc consts  --      1.3984                 1.3957                 1.4324
 IR Inten    --      0.0198                 8.8738                 5.3808

                     31                     32                     33
                      A                      A                      B
 Frequencies --   1501.3288              1710.9497              2990.7197
 Red. masses --      1.0982                 6.1407                 1.0714
 Frc consts  --      1.4584                10.5912                 5.6463
 IR Inten    --      2.4600                 4.7481                56.0495

                     34                     35                     36
                      A                      A                      B
 Frequencies --   2990.8329              3010.6428              3016.8249
 Red. masses --      1.0716                 1.0683                 1.0643
 Frc consts  --      5.6477                 5.7053                 5.7073
 IR Inten    --      0.0762                13.6263                18.1757

                     37                     38                     39
                      A                      B                      A
 Frequencies --   3034.7277              3035.0833              3059.9213
 Red. masses --      1.0888                 1.0839                 1.0938
 Frc consts  --      5.9081                 5.8830                 6.0341
 IR Inten    --      0.4620                89.3349                55.6022

                     40                     41                     42
                      B                      B                      A
 Frequencies --   3062.6852              3132.1263              3155.0844
 Red. masses --      1.1046                 1.0840                 1.0958
 Frc consts  --      6.1048                 6.2655                 6.4270
 IR Inten    --     54.3594                 9.5804                37.8800

 - Thermochemistry -
 -------------------
 Temperature   298.150 Kelvin.  Pressure   1.00000 Atm.
 Atom     1 has atomic number  6 and mass  12.00000

 Molecular mass:    82.07825 amu.
 Principal axes and moments of inertia in atomic units:
                           1         2         3
     Eigenvalues --   380.64793 395.66760 705.73233
           X            0.09116   0.00000   0.99584
           Y            0.99584   0.00000  -0.09116
           Z            0.00000   1.00000   0.00000
 This molecule is an asymmetric top.
 Rotational symmetry number  2.
 Rotational temperatures (Kelvin)      0.22754     0.21891     0.12273
 Rotational constants (GHZ):           4.74123     4.56126     2.55726
 Zero-point vibrational energy     382871.9 (Joules/Mol)
                                   91.50858 (Kcal/Mol)
 Warning -- explicit consideration of   5 degrees of freedom as
           vibrations may cause significant error
 Vibrational temperatures:    237.13   394.83   577.87   658.58   724.26
          (Kelvin)            943.90  1052.96  1182.54  1191.58  1267.00
                             1308.53  1346.11  1450.75  1467.26  1506.87
                             1541.28  1583.23  1670.50  1673.20  1798.05
                             1827.22  1861.77  1955.86  1970.59  1971.43
                             1993.74  2051.32  2122.19  2130.87  2148.30
                             2160.08  2461.68  4302.98  4303.14  4331.64
                             4340.54  4366.30  4366.81  4402.54  4406.52
                             4506.43  4539.46

 Zero-point correction=                           0.145828 (Hartree/Particle)
 Thermal correction to Energy=                    0.151344
 Thermal correction to Enthalpy=                  0.152288
 Thermal correction to Gibbs Free Energy=         0.117840
 Sum of electronic and zero-point Energies=           -234.594946
 Sum of electronic and thermal Energies=              -234.589431
 Sum of electronic and thermal Enthalpies=            -234.588486
 Sum of electronic and thermal Free Energies=         -234.622935

                     E (Thermal)             CV                S
                      KCal/Mol        Cal/Mol-Kelvin    Cal/Mol-Kelvin
 Total                   94.970             21.497             72.502
 Electronic               0.000              0.000              0.000
 Translational            0.889              2.981             39.129
 Rotational               0.889              2.981             24.789
 Vibrational             93.192             15.535              8.584
 Vibration     1          0.623              1.886              2.494
 Vibration     2          0.677              1.721              1.568
 Vibration     3          0.767              1.467              0.957
 Vibration     4          0.816              1.344              0.773
 Vibration     5          0.859              1.243              0.650

 Optimization completed.
    -- Stationary point found.
 Normal termination of Gaussian 16 at Wed Sep 27 15:19:59 2023.
 Gaussian 16:  ES64L-G16RevB.01 20-Dec-2017

 ---------------------------------
 # rohf/gen geom=check guess=check
 ---------------------------------

 -----------------------------
 cyclohexene, ROHF/cc-pVTZ-F12
 -----------------------------
 Structure from the checkpoint file:  "cyclohexene.chk"
 Charge =  0 Multiplicity = 1

                         Standard orientation:
 ---------------------------------------------------------------------
 Center     Atomic      Atomic             Coordinates (Angstroms)
 Number     Number       Type             X           Y           Z
 ---------------------------------------------------------------------
      1          6           0       -0.118479   -0.654614    1.302443
      2          6           0        0.118479    0.654614    1.302443
      3          6           0        0.249168    1.476393    0.048328
      4          6           0       -0.249168   -1.476393    0.048328
      5          6           0       -0.249168    0.723503   -1.190019
      6          6           0        0.249168   -0.723503   -1.190019
      7          1           0       -0.223359   -1.176621    2.247302
      8          1           0        0.223359    1.176621    2.247302
      9          1           0        1.297476    1.768821   -0.085843
     10          1           0       -1.297476   -1.768821   -0.085843
     11          1           0       -0.300926    2.414004    0.166428
     12          1           0        0.300926   -2.414004    0.166428
     13          1           0       -1.343192    0.724363   -1.194379
     14          1           0        1.343192   -0.724363   -1.194379
     15          1           0        0.068228    1.239603   -2.098020
     16          1           0       -0.068228   -1.239603   -2.098020
 ---------------------------------------------------------------------

 SCF Done:  E(ROHF) =  -233.111890989     A.U. after   10 cycles

 The electronic state is 1-A.
 Alpha  occ. eigenvalues --  -11.21877 -11.21871 -11.21766 -11.21597 -11.21493
 Alpha  occ. eigenvalues --  -11.21432  -1.11696  -1.00385  -1.00053  -0.84526
 Alpha  occ. eigenvalues --   -0.81522  -0.69685  -0.66646  -0.61299  -0.58251
 Alpha  occ. eigenvalues --   -0.56613  -0.53762  -0.52823  -0.52343  -0.46355
 Alpha  occ. eigenvalues --   -0.45033  -0.43600  -0.34124
 Alpha virt. eigenvalues --    0.04940   0.05161   0.05269   0.05588   0.06757
 Alpha virt. eigenvalues --    0.07216   0.09045   0.09239   0.09736   0.10618
 Alpha virt. eigenvalues --    0.11877   0.12162   0.12236   0.12672   0.13011

 Mulliken charges and spin densities:
               1          2
     1  C   -0.192419   0.000000
     2  C   -0.192419   0.000000
     3  C   -0.090472   0.000000
     4  C   -0.090472   0.000000
     5  C   -0.145937   0.000000
     6  C   -0.145937   0.000000
     7  H    0.135540   0.000000
     8  H    0.135540   0.000000
     9  H    0.081834   0.000000
    10  H    0.081834   0.000000
    11  H    0.064968   0.000000
    12  H    0.064968   0.000000
    13  H    0.077163   0.000000
    14  H    0.077163   0.000000
    15  H    0.069323   0.000000
    16  H    0.069323   0.000000
 Sum of Mulliken charges =  -0.00000   0.00000

 Dipole moment (field-independent basis, Debye):
    X=              0.0000    Y=             -0.0000    Z=             -0.3452  Tot=              0.3452
 Quadrupole moment (field-independent basis, Debye-Ang):
   XX=            -39.9046   YY=            -37.3880   ZZ=            -38.6346
   XY=              0.5096   XZ=              0.0000   YZ=              0.0000

 Normal termination of Gaussian 16 at Wed Sep 27 15:24:58 2023.
