 Gaussian 16, Revision B.01,

 ---------------------------------------
 # b3lyp/gen opt freq CPHF(Grid=OneStep)
 ---------------------------------------

 ---------------------------
 cyclopentene, B3LYP/pcseg-2
 ---------------------------
 Symbolic Z-matrix:
 Charge =  0 Multiplicity = 1

 SCF Done:  E(RB3LYP) =  -195.405138311     A.U. after   11 cycles
 Optimization completed.
    -- Stationary point found.
 Normal termination of Gaussian 16 at Fri Sep 29 04:23:17 2023.

 ------------------------------------------------------------------
 #N Geom=AllCheck Guess=TCheck SCRF=Check GenChk RB3LYP/ChkBas Freq
 ------------------------------------------------------------------

 Structure from the checkpoint file:  "cyclopentene.chk"
 ---------------------------
 cyclopentene, B3LYP/pcseg-2
 ---------------------------
 Charge =  0 Multiplicity = 1

 SCF Done:  E(RB3LYP) =  -195.405138311     A.U. after    1 cycles

  Exact polarizability:  45.367  -0.762  58.802   0.000  -0.000  67.620
 Approx polarizability:  67.798   0.128  77.213   0.000  -0.000 101.544

                      1                      2                      3
                     A'                     A"                     A'
 Frequencies --    134.4051               394.9379               620.5443
 Red. masses --      1.5874                 2.0152                 1.5702
 Frc consts  --      0.0169                 0.1852                 0.3562
 IR Inten    --      0.2146                 0.0482                13.3442

                      4                      5                      6
                     A'                     A"                     A'
 Frequencies --    715.6025               786.3529               818.4655
 Red. masses --      1.4138                 5.4077                 1.5966
 Frc consts  --      0.4266                 1.9701                 0.6301
 IR Inten    --     35.9489                 0.3785                 1.1424

                      7                      8                      9
                     A"                     A'                     A"
 Frequencies --    891.1378               901.8950               916.8283
 Red. masses --      1.6406                 3.1207                 1.6749
 Frc consts  --      0.7676                 1.4956                 0.8295
 IR Inten    --      4.4566                 0.5168                 6.5497

                     10                     11                     12
                     A'                     A"                     A"
 Frequencies --    972.4957               981.0217              1034.5412
 Red. masses --      2.6397                 1.2515                 2.0515
 Frc consts  --      1.4709                 0.7096                 1.2936
 IR Inten    --      1.0240                 0.0454                 2.2021

                     13                     14                     15
                     A'                     A'                     A"
 Frequencies --   1071.2221              1132.2303              1154.6029
 Red. masses --      1.7272                 1.0906                 1.2026
 Frc consts  --      1.1678                 0.8237                 0.9446
 IR Inten    --      8.1398                 0.0975                 1.3238

                     16                     17                     18
                     A"                     A'                     A"
 Frequencies --   1225.7172              1231.8790              1311.3467
 Red. masses --      1.3553                 1.2120                 1.2768
 Frc consts  --      1.1997                 1.0837                 1.2936
 IR Inten    --      0.0159                 1.7524                 2.1756

                     19                     20                     21
                     A"                     A'                     A"
 Frequencies --   1320.6011              1327.7709              1383.0067
 Red. masses --      1.2683                 1.6538                 1.6494
 Frc consts  --      1.3032                 1.7178                 1.8588
 IR Inten    --      0.2013                 0.9837                 1.8406

                     22                     23                     24
                     A'                     A"                     A'
 Frequencies --   1485.2638              1490.0641              1508.5618
 Red. masses --      1.0854                 1.0832                 1.1030
 Frc consts  --      1.4107                 1.4170                 1.4789
 IR Inten    --      1.2484                 2.5726                 2.4192

                     25                     26                     27
                     A'                     A'                     A"
 Frequencies --   1675.4999              3000.3393              3002.1486
 Red. masses --      5.8240                 1.0721                 1.0700
 Frc consts  --      9.6330                 5.6865                 5.6819
 IR Inten    --      3.3662                29.0120                53.4612

                     28                     29                     30
                     A'                     A"                     A'
 Frequencies --   3039.2372              3047.6433              3059.2684
 Red. masses --      1.0795                 1.0910                 1.0728
 Frc consts  --      5.8749                 5.9702                 5.9155
 IR Inten    --      4.2115                35.3260                52.2045

                     31                     32                     33
                     A'                     A"                     A'
 Frequencies --   3094.3276              3172.1487              3196.1405
 Red. masses --      1.1037                 1.0850                 1.1027
 Frc consts  --      6.2262                 6.4326                 6.6365
 IR Inten    --     39.6681                 7.5395                21.2630

 - Thermochemistry -
 -------------------
 Temperature   298.150 Kelvin.  Pressure   1.00000 Atm.
 Atom     1 has atomic number  6 and mass  12.00000

 Molecular mass:    68.06260 amu.
 Principal axes and moments of inertia in atomic units:
                           1         2         3
     Eigenvalues --   246.49181 248.88814 457.82589
           X            0.00000  -0.09927   0.99506
           Y            0.00000   0.99506   0.09927
           Z            1.00000  -0.00000   0.00000
 This molecule is an asymmetric top.
 Rotational symmetry number  1.
 Rotational temperatures (Kelvin)      0.35139     0.34800     0.18919
 Rotational constants (GHZ):           7.32171     7.25121     3.94198
 Zero-point vibrational energy     305629.4 (Joules/Mol)
                                   73.04718 (Kcal/Mol)
 Warning -- explicit consideration of   3 degrees of freedom as
           vibrations may cause significant error
 Vibrational temperatures:    193.38   568.23   892.82  1029.59  1131.39
          (Kelvin)           1177.59  1282.15  1297.63  1319.11  1399.20
                             1411.47  1488.47  1541.25  1629.03  1661.22
                             1763.53  1772.40  1886.74  1900.05  1910.37
                             1989.84  2136.96  2143.87  2170.48  2410.67
                             4316.82  4319.42  4372.78  4384.88  4401.60
                             4452.05  4564.01  4598.53

 Zero-point correction=                           0.116408 (Hartree/Particle)
 Thermal correction to Energy=                    0.121066
 Thermal correction to Enthalpy=                  0.122010
 Thermal correction to Gibbs Free Energy=         0.088999
 Sum of electronic and zero-point Energies=           -195.288730
 Sum of electronic and thermal Energies=              -195.284072
 Sum of electronic and thermal Enthalpies=            -195.283128
 Sum of electronic and thermal Free Energies=         -195.316140

                     E (Thermal)             CV                S
                      KCal/Mol        Cal/Mol-Kelvin    Cal/Mol-Kelvin
 Total                   75.970             17.046             69.479
 Electronic               0.000              0.000              0.000
 Translational            0.889              2.981             38.571
 Rotational               0.889              2.981             24.844
 Vibrational             74.193             11.085              6.064
 Vibration     1          0.613              1.919              2.882
 Vibration     2          0.762              1.481              0.981
 Vibration     3          0.981              0.989              0.416

                           ! Non-Optimized Parameters !
 Normal termination of Gaussian 16 at Fri Sep 29 04:34:28 2023.
 Gaussian 16:  ES64L-G16RevB.01 20-Dec-2017

 ---------------------------------
 # rohf/gen geom=check guess=check
 ---------------------------------

 ------------------------------
 cyclopentene, ROHF/cc-pVTZ-F12
 ------------------------------
 Structure from the checkpoint file:  "cyclopentene.chk"
 Charge =  0 Multiplicity = 1

                         Standard orientation:
 ---------------------------------------------------------------------
 Center     Atomic      Atomic             Coordinates (Angstroms)
 Number     Number       Type             X           Y           Z
 ---------------------------------------------------------------------
      1          6           0        0.245835   -1.208507   -0.000000
      2          6           0       -0.063377   -0.324318    1.234080
      3          6           0       -0.063377   -0.324318   -1.234080
      4          6           0       -0.063377    1.072436    0.664516
      5          6           0       -0.063377    1.072436   -0.664516
      6          1           0        1.304166   -1.471590   -0.000000
      7          1           0       -0.317591   -2.140452   -0.000000
      8          1           0       -1.040339   -0.559376    1.670522
      9          1           0       -1.040339   -0.559376   -1.670522
     10          1           0       -0.098129    1.958324    1.284525
     11          1           0       -0.098129    1.958324   -1.284525
     12          1           0        0.668199   -0.456111   -2.033876
     13          1           0        0.668199   -0.456111    2.033876
 ---------------------------------------------------------------------

 SCF Done:  E(ROHF) =  -194.054992803     A.U. after   10 cycles

 The electronic state is 1-A'.
 Alpha  occ. eigenvalues --  -11.21916 -11.21905 -11.21811 -11.21655 -11.21639
 Alpha  occ. eigenvalues --   -1.12669  -0.96208  -0.95425  -0.78565  -0.72194
 Alpha  occ. eigenvalues --   -0.67172  -0.63305  -0.54929  -0.53246  -0.48855
 Alpha  occ. eigenvalues --   -0.48709  -0.48359  -0.47233  -0.34066
 Alpha virt. eigenvalues --    0.05207   0.05233   0.05599   0.06373   0.07055
 Alpha virt. eigenvalues --    0.07887   0.09136   0.09836   0.10826   0.11775
 Alpha virt. eigenvalues --    0.12138   0.12492   0.13381   0.13786   0.14112

 Mulliken charges and spin densities:
               1          2
     1  C   -0.170425  -0.000000
     2  C   -0.085152  -0.000000
     3  C   -0.085152  -0.000000
     4  C   -0.189962  -0.000000
     5  C   -0.189962  -0.000000
     6  H    0.082887  -0.000000
     7  H    0.054946  -0.000000
     8  H    0.078974  -0.000000
     9  H    0.078974  -0.000000
    10  H    0.147520  -0.000000
    11  H    0.147520  -0.000000
    12  H    0.064916  -0.000000
    13  H    0.064916  -0.000000
 Sum of Mulliken charges =  -0.00000  -0.00000

 Dipole moment (field-independent basis, Debye):
    X=             -0.0682    Y=             -0.2229    Z=             -0.0000  Tot=              0.2331
 Quadrupole moment (field-independent basis, Debye-Ang):
   XX=            -33.1244   YY=            -31.6981   ZZ=            -30.8459
   XY=             -0.0442   XZ=              0.0000   YZ=             -0.0000

 Normal termination of Gaussian 16 at Fri Sep 29 04:36:57 2023.
