 Gaussian 16, Revision B.01,
 Gaussian 16:  ES64L-G16RevB.01 20-Dec-2017

 --------------------
 # b3lyp/gen opt freq
 --------------------

 ---------------------------
 cyclopentene, B3LYP/pcseg-2
 ---------------------------
 Symbolic Z-matrix:
 Charge =  0 Multiplicity = 1

 SCF Done:  E(RB3LYP) =  -195.405031619     A.U. after   11 cycles
 SCF Done:  E(RB3LYP) =  -195.405136893     A.U. after    7 cycles
 SCF Done:  E(RB3LYP) =  -195.405138140     A.U. after    6 cycles
 SCF Done:  E(RB3LYP) =  -195.405138311     A.U. after    6 cycles
 Optimization completed.
    -- Stationary point found.
 Normal termination of Gaussian 16 at Thu Jun 16 12:29:13 2022.

 ------------------------------------------------------------------
 #N Geom=AllCheck Guess=TCheck SCRF=Check GenChk RB3LYP/ChkBas Freq
 ------------------------------------------------------------------

 Structure from the checkpoint file:  "/wrk/irikura/Gau-1290.chk"
 ---------------------------
 cyclopentene, B3LYP/pcseg-2
 ---------------------------
 Charge =  0 Multiplicity = 1

                         Standard orientation:
 ---------------------------------------------------------------------
 Center     Atomic      Atomic             Coordinates (Angstroms)
 Number     Number       Type             X           Y           Z
 ---------------------------------------------------------------------
      1          6           0        0.245835   -1.208507    0.000000
      2          6           0       -0.063377   -0.324318    1.234080
      3          6           0       -0.063377   -0.324318   -1.234080
      4          6           0       -0.063377    1.072436    0.664516
      5          6           0       -0.063377    1.072436   -0.664516
      6          1           0        1.304166   -1.471590    0.000000
      7          1           0       -0.317591   -2.140452    0.000000
      8          1           0       -1.040339   -0.559376    1.670522
      9          1           0       -1.040339   -0.559376   -1.670522
     10          1           0       -0.098129    1.958324    1.284525
     11          1           0       -0.098129    1.958324   -1.284525
     12          1           0        0.668199   -0.456111   -2.033876
     13          1           0        0.668199   -0.456111    2.033876
 ---------------------------------------------------------------------

 SCF Done:  E(RB3LYP) =  -195.405138311     A.U. after    1 cycles

 The electronic state is 1-A'.
 Alpha  occ. eigenvalues --  -10.16793 -10.16792 -10.16603 -10.16363 -10.16268
 Alpha  occ. eigenvalues --   -0.84045  -0.70816  -0.70517  -0.57487  -0.52889
 Alpha  occ. eigenvalues --   -0.49893  -0.46869  -0.40007  -0.38178  -0.35125
 Alpha  occ. eigenvalues --   -0.34923  -0.34530  -0.34229  -0.24440
 Alpha virt. eigenvalues --    0.01306   0.01477   0.04562   0.04641   0.04662
 Alpha virt. eigenvalues --    0.07210   0.07557   0.08848   0.10165   0.14041
 Alpha virt. eigenvalues --    0.15068   0.15701   0.17314   0.18512   0.20435

 Mulliken charges:
               1
     1  C   -0.079361
     2  C   -0.002081
     3  C   -0.002081
     4  C   -0.078291
     5  C   -0.078291
     6  H    0.034145
     7  H    0.032618
     8  H    0.027638
     9  H    0.027638
    10  H    0.027761
    11  H    0.027761
    12  H    0.031273
    13  H    0.031273
 Sum of Mulliken charges =  -0.00000

 Dipole moment (field-independent basis, Debye):
    X=             -0.0588    Y=             -0.2368    Z=             -0.0000  Tot=              0.2440
 Quadrupole moment (field-independent basis, Debye-Ang):
   XX=            -32.9483   YY=            -31.7572   ZZ=            -31.0691
   XY=             -0.0259   XZ=              0.0000   YZ=             -0.0000

  Exact polarizability:  45.366  -0.763  58.802   0.000  -0.000  67.620
 Approx polarizability:  67.798   0.128  77.213   0.000  -0.000 101.544

                      1                      2                      3
                     A'                     A"                     A'
 Frequencies --    134.4037               394.9377               620.5405
 Red. masses --      1.5874                 2.0152                 1.5701
 Frc consts  --      0.0169                 0.1852                 0.3562
 IR Inten    --      0.2146                 0.0482                13.3454

                      4                      5                      6
                     A'                     A"                     A'
 Frequencies --    715.5983               786.3538               818.4668
 Red. masses --      1.4138                 5.4077                 1.5965
 Frc consts  --      0.4266                 1.9701                 0.6301
 IR Inten    --     35.9467                 0.3785                 1.1421

                      7                      8                      9
                     A"                     A'                     A"
 Frequencies --    891.1371               901.8931               916.8296
 Red. masses --      1.6406                 3.1208                 1.6749
 Frc consts  --      0.7676                 1.4956                 0.8295
 IR Inten    --      4.4562                 0.5165                 6.5499

                     10                     11                     12
                     A'                     A"                     A"
 Frequencies --    972.4968               981.0215              1034.5421
 Red. masses --      2.6396                 1.2515                 2.0515
 Frc consts  --      1.4709                 0.7096                 1.2936
 IR Inten    --      1.0240                 0.0454                 2.2023

                     13                     14                     15
                     A'                     A'                     A"
 Frequencies --   1071.2212              1132.2295              1154.6036
 Red. masses --      1.7272                 1.0906                 1.2026
 Frc consts  --      1.1678                 0.8237                 0.9446
 IR Inten    --      8.1404                 0.0975                 1.3236

                     16                     17                     18
                     A"                     A'                     A"
 Frequencies --   1225.7166              1231.8795              1311.3471
 Red. masses --      1.3553                 1.2120                 1.2768
 Frc consts  --      1.1997                 1.0837                 1.2936
 IR Inten    --      0.0159                 1.7521                 2.1758

                     19                     20                     21
                     A"                     A'                     A"
 Frequencies --   1320.6012              1327.7708              1383.0067
 Red. masses --      1.2683                 1.6538                 1.6494
 Frc consts  --      1.3032                 1.7178                 1.8588
 IR Inten    --      0.2013                 0.9839                 1.8407

                     22                     23                     24
                     A'                     A"                     A'
 Frequencies --   1485.2630              1490.0632              1508.5590
 Red. masses --      1.0854                 1.0832                 1.1030
 Frc consts  --      1.4107                 1.4170                 1.4789
 IR Inten    --      1.2486                 2.5727                 2.4194

                     25                     26                     27
                     A'                     A'                     A"
 Frequencies --   1675.5008              3000.3363              3002.1443
 Red. masses --      5.8239                 1.0721                 1.0700
 Frc consts  --      9.6329                 5.6865                 5.6819
 IR Inten    --      3.3622                29.0155                53.4626

                     28                     29                     30
                     A'                     A"                     A'
 Frequencies --   3039.2386              3047.6468              3059.2704
 Red. masses --      1.0795                 1.0910                 1.0728
 Frc consts  --      5.8749                 5.9702                 5.9156
 IR Inten    --      4.2114                35.3271                52.2036

                     31                     32                     33
                     A'                     A"                     A'
 Frequencies --   3094.3329              3172.1490              3196.1389
 Red. masses --      1.1037                 1.0850                 1.1027
 Frc consts  --      6.2262                 6.4326                 6.6365
 IR Inten    --     39.6657                 7.5400                21.2667

 - Thermochemistry -
 -------------------
 Temperature   298.150 Kelvin.  Pressure   1.00000 Atm.
 Atom     1 has atomic number  6 and mass  12.00000

 Molecular mass:    68.06260 amu.
 Principal axes and moments of inertia in atomic units:
                           1         2         3
     Eigenvalues --   246.49177 248.88821 457.82593
           X            0.00000  -0.09927   0.99506
           Y            0.00000   0.99506   0.09927
           Z            1.00000   0.00000   0.00000
 This molecule is an asymmetric top.
 Rotational symmetry number  1.
 Rotational temperatures (Kelvin)      0.35139     0.34800     0.18919
 Rotational constants (GHZ):           7.32171     7.25121     3.94198
 Zero-point vibrational energy     305629.4 (Joules/Mol)
                                   73.04717 (Kcal/Mol)
 Warning -- explicit consideration of   3 degrees of freedom as
           vibrations may cause significant error
 Vibrational temperatures:    193.38   568.23   892.82  1029.59  1131.39
          (Kelvin)           1177.59  1282.15  1297.62  1319.11  1399.21
                             1411.47  1488.48  1541.25  1629.03  1661.22
                             1763.53  1772.40  1886.74  1900.05  1910.37
                             1989.84  2136.96  2143.87  2170.48  2410.67
                             4316.81  4319.42  4372.79  4384.88  4401.61
                             4452.05  4564.01  4598.53

 Zero-point correction=                           0.116408 (Hartree/Particle)
 Thermal correction to Energy=                    0.121066
 Thermal correction to Enthalpy=                  0.122010
 Thermal correction to Gibbs Free Energy=         0.088999
 Sum of electronic and zero-point Energies=           -195.288730
 Sum of electronic and thermal Energies=              -195.284072
 Sum of electronic and thermal Enthalpies=            -195.283128
 Sum of electronic and thermal Free Energies=         -195.316140

                     E (Thermal)             CV                S
                      KCal/Mol        Cal/Mol-Kelvin    Cal/Mol-Kelvin
 Total                   75.970             17.046             69.479
 Electronic               0.000              0.000              0.000
 Translational            0.889              2.981             38.571
 Rotational               0.889              2.981             24.844
 Vibrational             74.193             11.085              6.064
 Vibration     1          0.613              1.919              2.882
 Vibration     2          0.762              1.481              0.981
 Vibration     3          0.981              0.989              0.416

                           ! Non-Optimized Parameters !
 Normal termination of Gaussian 16 at Thu Jun 16 12:31:48 2022.
