 Gaussian 16, Revision B.01,

 ---------------------------------------
 # b3lyp/gen opt freq CPHF(Grid=OneStep)
 ---------------------------------------

 ---------------------
 Cyrene, B3LYP/pcseg-2
 ---------------------
 Symbolic Z-matrix:
 Charge =  0 Multiplicity = 1

 SCF Done:  E(RB3LYP) =  -459.281528718     A.U. after   13 cycles
 Optimization completed.
    -- Stationary point found.
 Normal termination of Gaussian 16 at Thu Sep 28 15:46:29 2023.

 ------------------------------------------------------------------
 #N Geom=AllCheck Guess=TCheck SCRF=Check GenChk RB3LYP/ChkBas Freq
 ------------------------------------------------------------------

 Structure from the checkpoint file:  "cyrene.chk"
 ---------------------
 Cyrene, B3LYP/pcseg-2
 ---------------------
 Charge =  0 Multiplicity = 1

 SCF Done:  E(RB3LYP) =  -459.281528718     A.U. after    1 cycles

  Exact polarizability:  84.777  -3.301  73.673   1.597  -2.075  62.516
 Approx polarizability: 119.811  -8.277 101.914   3.219  -2.212  96.927

                      1                      2                      3
                      A                      A                      A
 Frequencies --    100.3598               173.7831               234.6370
 Red. masses --      5.0302                 2.4244                 4.2202
 Frc consts  --      0.0299                 0.0431                 0.1369
 IR Inten    --      3.2676                 2.3954                 3.1010

                      4                      5                      6
                      A                      A                      A
 Frequencies --    344.3887               417.4262               430.4330
 Red. masses --      2.1272                 6.6458                 5.8665
 Frc consts  --      0.1486                 0.6823                 0.6404
 IR Inten    --      0.9296                 3.2033                17.6036

                      7                      8                      9
                      A                      A                      A
 Frequencies --    489.3895               547.8204               657.9298
 Red. masses --      4.7192                 2.3343                 4.3994
 Frc consts  --      0.6659                 0.4128                 1.1220
 IR Inten    --      8.6908                10.4537                 0.2936

                     10                     11                     12
                      A                      A                      A
 Frequencies --    753.8387               767.6748               811.1960
 Red. masses --      6.2259                 3.2549                 3.4153
 Frc consts  --      2.0845                 1.1302                 1.3241
 IR Inten    --      4.4888                 2.1029                10.6671

                     13                     14                     15
                      A                      A                      A
 Frequencies --    822.0354               893.6788               914.0186
 Red. masses --      2.3967                 3.0291                 3.6183
 Frc consts  --      0.9542                 1.4253                 1.7810
 IR Inten    --      3.8981                48.0873                54.3441

                     16                     17                     18
                      A                      A                      A
 Frequencies --    952.2440               968.9015              1003.9848
 Red. masses --      2.4458                 2.2958                 3.9197
 Frc consts  --      1.3067                 1.2698                 2.3279
 IR Inten    --     15.1953                11.5650                47.6134

                     19                     20                     21
                      A                      A                      A
 Frequencies --   1028.7942              1057.7867              1093.8302
 Red. masses --      3.8357                 1.9860                 1.6693
 Frc consts  --      2.3919                 1.3092                 1.1767
 IR Inten    --     16.3470                 9.6280                 2.7001

                     22                     23                     24
                      A                      A                      A
 Frequencies --   1129.3436              1178.8086              1199.0397
 Red. masses --      4.9826                 1.4911                 1.4565
 Frc consts  --      3.7442                 1.2208                 1.2338
 IR Inten    --    104.6991                14.6173                 4.4312

                     25                     26                     27
                      A                      A                      A
 Frequencies --   1223.7213              1258.8231              1295.2579
 Red. masses --      1.3829                 1.6496                 1.2932
 Frc consts  --      1.2202                 1.5401                 1.2783
 IR Inten    --     12.2255                10.6569                 0.4968

                     28                     29                     30
                      A                      A                      A
 Frequencies --   1307.6008              1316.8414              1350.3452
 Red. masses --      1.3619                 1.3672                 1.3962
 Frc consts  --      1.3719                 1.3968                 1.5000
 IR Inten    --      7.3946                11.3567                 5.5489

                     31                     32                     33
                      A                      A                      A
 Frequencies --   1361.9093              1370.8376              1387.8146
 Red. masses --      1.6419                 1.3190                 1.4164
 Frc consts  --      1.7943                 1.4604                 1.6073
 IR Inten    --      1.1236                 1.7402                 1.7679

                     34                     35                     36
                      A                      A                      A
 Frequencies --   1465.9911              1490.6892              1527.4438
 Red. masses --      1.0769                 1.0896                 1.0909
 Frc consts  --      1.3636                 1.4265                 1.4996
 IR Inten    --     10.1889                 6.6435                 2.9937

                     37                     38                     39
                      A                      A                      A
 Frequencies --   1804.7334              3031.1798              3040.4168
 Red. masses --     11.5783                 1.0683                 1.0605
 Frc consts  --     22.2188                 5.7829                 5.7759
 IR Inten    --    225.7150                 6.6490                18.5346

                     40                     41                     42
                      A                      A                      A
 Frequencies --   3045.5436              3079.5389              3086.4802
 Red. masses --      1.0569                 1.1027                 1.1093
 Frc consts  --      5.7757                 6.1614                 6.2265
 IR Inten    --     46.3977                13.9624                27.7458

                     43                     44                     45
                      A                      A                      A
 Frequencies --   3105.7479              3107.3954              3119.2953
 Red. masses --      1.0913                 1.0931                 1.0924
 Frc consts  --      6.2020                 6.2185                 6.2623
 IR Inten    --     29.5657                14.5736                15.7629

 - Thermochemistry -
 -------------------
 Temperature   298.150 Kelvin.  Pressure   1.00000 Atm.
 Atom     1 has atomic number  6 and mass  12.00000

 Molecular mass:   128.04734 amu.
 Principal axes and moments of inertia in atomic units:
                           1         2         3
     Eigenvalues --   663.566271006.575681239.92878
           X            0.99998   0.00155   0.00626
           Y           -0.00136   0.99952  -0.03094
           Z           -0.00631   0.03093   0.99950
 This molecule is an asymmetric top.
 Rotational symmetry number  1.
 Warning -- assumption of classical behavior for rotation
           may cause significant error
 Rotational temperatures (Kelvin)      0.13053     0.08605     0.06985
 Rotational constants (GHZ):           2.71976     1.79295     1.45552
 Zero-point vibrational energy     363359.4 (Joules/Mol)
                                   86.84498 (Kcal/Mol)
 Warning -- explicit consideration of   8 degrees of freedom as
           vibrations may cause significant error
 Vibrational temperatures:    144.40   250.04   337.59   495.50   600.58
          (Kelvin)            619.30   704.12   788.19   946.61  1084.61
                             1104.51  1167.13  1182.73  1285.80  1315.07
                             1370.07  1394.03  1444.51  1480.21  1521.92
                             1573.78  1624.87  1696.04  1725.15  1760.66
                             1811.17  1863.59  1881.35  1894.64  1942.85
                             1959.48  1972.33  1996.76  2109.23  2144.77
                             2197.65  2596.61  4361.19  4374.48  4381.86
                             4430.77  4440.76  4468.48  4470.85  4487.97

 Zero-point correction=                           0.138396 (Hartree/Particle)
 Thermal correction to Energy=                    0.145383
 Thermal correction to Enthalpy=                  0.146328
 Thermal correction to Gibbs Free Energy=         0.106900
 Sum of electronic and zero-point Energies=           -459.143132
 Sum of electronic and thermal Energies=              -459.136145
 Sum of electronic and thermal Enthalpies=            -459.135201
 Sum of electronic and thermal Free Energies=         -459.174629

                     E (Thermal)             CV                S
                      KCal/Mol        Cal/Mol-Kelvin    Cal/Mol-Kelvin
 Total                   91.229             27.370             82.983
 Electronic               0.000              0.000              0.000
 Translational            0.889              2.981             40.455
 Rotational               0.889              2.981             28.206
 Vibrational             89.452             21.408             14.322
 Vibration     1          0.604              1.949              3.447
 Vibration     2          0.627              1.875              2.394
 Vibration     3          0.654              1.788              1.843
 Vibration     4          0.723              1.587              1.192
 Vibration     5          0.780              1.432              0.901
 Vibration     6          0.792              1.404              0.857
 Vibration     7          0.845              1.274              0.685
 Vibration     8          0.903              1.144              0.549

                           ! Non-Optimized Parameters !
 Normal termination of Gaussian 16 at Thu Sep 28 16:38:46 2023.
 Gaussian 16:  ES64L-G16RevB.01 20-Dec-2017

 ---------------------------------
 # rohf/gen geom=check guess=check
 ---------------------------------

 ------------------------
 Cyrene, ROHF/cc-pVTZ-F12
 ------------------------
 Structure from the checkpoint file:  "cyrene.chk"
 Charge =  0 Multiplicity = 1

                         Standard orientation:
 ---------------------------------------------------------------------
 Center     Atomic      Atomic             Coordinates (Angstroms)
 Number     Number       Type             X           Y           Z
 ---------------------------------------------------------------------
      1          6           0        1.360885   -0.098169   -0.049077
      2          6           0        0.856452    1.239818   -0.566271
      3          6           0       -0.443261    1.692399    0.134202
      4          6           0       -1.335397    0.500689    0.473271
      5          6           0       -1.680394   -0.385449   -0.730745
      6          8           0       -0.586945   -1.315129   -0.791395
      7          6           0        0.234841   -1.066967    0.341313
      8          8           0        2.525700   -0.391346    0.048096
      9          8           0       -0.584375   -0.419748    1.289153
     10          1           0        1.653015    1.975390   -0.472136
     11          1           0        0.675661    1.100624   -1.636376
     12          1           0       -0.198768    2.200007    1.068367
     13          1           0       -0.986649    2.405854   -0.488629
     14          1           0       -2.211000    0.802274    1.043607
     15          1           0       -2.607560   -0.938019   -0.575702
     16          1           0       -1.742571    0.168024   -1.668190
     17          1           0        0.624067   -1.998286    0.746064
 ---------------------------------------------------------------------

 SCF Done:  E(ROHF) =  -456.627762294     A.U. after   12 cycles

 The electronic state is 1-A.
 Alpha  occ. eigenvalues --  -20.58579 -20.58069 -20.55718 -11.34903 -11.33440
 Alpha  occ. eigenvalues --  -11.30719 -11.29778 -11.25130 -11.24953  -1.46257
 Alpha  occ. eigenvalues --   -1.39784  -1.35000  -1.10036  -1.05175  -0.92217
 Alpha  occ. eigenvalues --   -0.90740  -0.83631  -0.77299  -0.73875  -0.69012
 Alpha  occ. eigenvalues --   -0.65887  -0.65012  -0.62845  -0.61571  -0.60597
 Alpha  occ. eigenvalues --   -0.57368  -0.56794  -0.53850  -0.52593  -0.51319
 Alpha  occ. eigenvalues --   -0.48893  -0.48553  -0.45637  -0.39523
 Alpha virt. eigenvalues --    0.03365   0.04481   0.04648   0.05302   0.06619
 Alpha virt. eigenvalues --    0.07136   0.07423   0.08080   0.08505   0.10290
 Alpha virt. eigenvalues --    0.10766   0.11136   0.11332   0.11654   0.12115

 Mulliken charges and spin densities:
               1          2
     1  C    0.475435   0.000000
     2  C   -0.149448   0.000000
     3  C   -0.220175   0.000000
     4  C    0.338909   0.000000
     5  C   -0.020920   0.000000
     6  O   -0.587814   0.000000
     7  C    0.440360   0.000000
     8  O   -0.633940   0.000000
     9  O   -0.659287   0.000000
    10  H    0.123194   0.000000
    11  H    0.106849   0.000000
    12  H    0.092462   0.000000
    13  H    0.089835   0.000000
    14  H    0.115881   0.000000
    15  H    0.130172   0.000000
    16  H    0.124897   0.000000
    17  H    0.233590   0.000000
 Sum of Mulliken charges =  -0.00000   0.00000

 Dipole moment (field-independent basis, Debye):
    X=             -3.7134    Y=              2.7779    Z=             -0.8273  Tot=              4.7107
 Quadrupole moment (field-independent basis, Debye-Ang):
   XX=            -58.3677   YY=            -50.9435   ZZ=            -54.5595
   XY=              0.1027   XZ=              0.6663   YZ=             -1.7242

 Normal termination of Gaussian 16 at Thu Sep 28 17:05:01 2023.
