 Gaussian 16, Revision B.01,
 Gaussian 16:  ES64L-G16RevB.01 20-Dec-2017

 --------------------
 # b3lyp/gen opt freq
 --------------------

 ---------------------
 Cyrene, B3LYP/pcseg-2
 ---------------------
 Symbolic Z-matrix:
 Charge =  0 Multiplicity = 1

 SCF Done:  E(RB3LYP) =  -459.281527329     A.U. after   13 cycles
 SCF Done:  E(RB3LYP) =  -459.281528027     A.U. after    7 cycles
 SCF Done:  E(RB3LYP) =  -459.281527634     A.U. after    8 cycles
 SCF Done:  E(RB3LYP) =  -459.281528718     A.U. after    7 cycles
 Optimization completed.
    -- Stationary point found.
 Normal termination of Gaussian 16 at Mon Aug 15 14:26:30 2022.

 ------------------------------------------------------------------
 #N Geom=AllCheck Guess=TCheck SCRF=Check GenChk RB3LYP/ChkBas Freq
 ------------------------------------------------------------------

 Structure from the checkpoint file:  "/home/irikura/scratch/gau/Gau-481910.chk"
 ---------------------
 Cyrene, B3LYP/pcseg-2
 ---------------------
 Charge =  0 Multiplicity = 1

                         Standard orientation:
 ---------------------------------------------------------------------
 Center     Atomic      Atomic             Coordinates (Angstroms)
 Number     Number       Type             X           Y           Z
 ---------------------------------------------------------------------
      1          6           0        1.360885   -0.098169   -0.049077
      2          6           0        0.856452    1.239818   -0.566271
      3          6           0       -0.443261    1.692399    0.134202
      4          6           0       -1.335397    0.500689    0.473271
      5          6           0       -1.680394   -0.385449   -0.730745
      6          8           0       -0.586945   -1.315129   -0.791395
      7          6           0        0.234841   -1.066967    0.341313
      8          8           0        2.525700   -0.391346    0.048096
      9          8           0       -0.584375   -0.419748    1.289153
     10          1           0        1.653015    1.975390   -0.472136
     11          1           0        0.675661    1.100624   -1.636376
     12          1           0       -0.198768    2.200007    1.068367
     13          1           0       -0.986649    2.405854   -0.488629
     14          1           0       -2.211000    0.802274    1.043607
     15          1           0       -2.607560   -0.938019   -0.575702
     16          1           0       -1.742571    0.168024   -1.668190
     17          1           0        0.624067   -1.998286    0.746064
 ---------------------------------------------------------------------

 SCF Done:  E(RB3LYP) =  -459.281528718     A.U. after    1 cycles

 The electronic state is 1-A.
 Alpha  occ. eigenvalues --  -19.15752 -19.15132 -19.12751 -10.28622 -10.26884
 Alpha  occ. eigenvalues --  -10.25119 -10.24125 -10.19795 -10.19527  -1.11756
 Alpha  occ. eigenvalues --   -1.05815  -1.01761  -0.82535  -0.78924  -0.68686
 Alpha  occ. eigenvalues --   -0.66943  -0.62715  -0.57424  -0.54581  -0.50486
 Alpha  occ. eigenvalues --   -0.48452  -0.47194  -0.46751  -0.45032  -0.44121
 Alpha  occ. eigenvalues --   -0.41884  -0.41024  -0.38912  -0.37299  -0.36274
 Alpha  occ. eigenvalues --   -0.35018  -0.31994  -0.29851  -0.24737
 Alpha virt. eigenvalues --   -0.04026   0.00106   0.02561   0.03449   0.04024
 Alpha virt. eigenvalues --    0.05879   0.06456   0.06969   0.07222   0.08622
 Alpha virt. eigenvalues --    0.10540   0.11452   0.12312   0.14973   0.15704

 Mulliken charges:
               1
     1  C    0.251814
     2  C   -0.077232
     3  C   -0.061910
     4  C    0.149336
     5  C    0.200044
     6  O   -0.492701
     7  C    0.521705
     8  O   -0.382158
     9  O   -0.485792
    10  H    0.066538
    11  H    0.063611
    12  H    0.042930
    13  H    0.039521
    14  H    0.045484
    15  H    0.035538
    16  H    0.033881
    17  H    0.049391
 Sum of Mulliken charges =  -0.00000

 Dipole moment (field-independent basis, Debye):
    X=             -3.4170    Y=              2.5759    Z=             -0.7419  Tot=              4.3430
 Quadrupole moment (field-independent basis, Debye-Ang):
   XX=            -57.9396   YY=            -51.2976   ZZ=            -54.5565
   XY=              0.0652   XZ=              0.5541   YZ=             -1.5716

  Exact polarizability:  84.776  -3.302  73.672   1.598  -2.075  62.516
 Approx polarizability: 119.811  -8.277 101.914   3.219  -2.212  96.927

                      1                      2                      3
                      A                      A                      A
 Frequencies --    100.3605               173.7870               234.6423
 Red. masses --      5.0303                 2.4244                 4.2203
 Frc consts  --      0.0299                 0.0431                 0.1369
 IR Inten    --      3.2673                 2.3949                 3.1007

                      4                      5                      6
                      A                      A                      A
 Frequencies --    344.3915               417.4275               430.4372
 Red. masses --      2.1272                 6.6464                 5.8661
 Frc consts  --      0.1486                 0.6823                 0.6404
 IR Inten    --      0.9299                 3.2014                17.6061

                      7                      8                      9
                      A                      A                      A
 Frequencies --    489.3905               547.8277               657.9344
 Red. masses --      4.7194                 2.3345                 4.3993
 Frc consts  --      0.6660                 0.4128                 1.1220
 IR Inten    --      8.6903                10.4568                 0.2931

                     10                     11                     12
                      A                      A                      A
 Frequencies --    753.8407               767.6764               811.1921
 Red. masses --      6.2256                 3.2551                 3.4150
 Frc consts  --      2.0845                 1.1302                 1.3240
 IR Inten    --      4.4897                 2.1032                10.6674

                     13                     14                     15
                      A                      A                      A
 Frequencies --    822.0398               893.6813               914.0215
 Red. masses --      2.3966                 3.0291                 3.6182
 Frc consts  --      0.9542                 1.4254                 1.7809
 IR Inten    --      3.8989                48.0834                54.3485

                     16                     17                     18
                      A                      A                      A
 Frequencies --    952.2480               968.9056              1003.9854
 Red. masses --      2.4459                 2.2958                 3.9194
 Frc consts  --      1.3067                 1.2698                 2.3277
 IR Inten    --     15.1987                11.5664                47.6108

                     19                     20                     21
                      A                      A                      A
 Frequencies --   1028.7937              1057.7893              1093.8326
 Red. masses --      3.8357                 1.9860                 1.6693
 Frc consts  --      2.3920                 1.3093                 1.1767
 IR Inten    --     16.3477                 9.6303                 2.6986

                     22                     23                     24
                      A                      A                      A
 Frequencies --   1129.3493              1178.8094              1199.0403
 Red. masses --      4.9824                 1.4911                 1.4565
 Frc consts  --      3.7441                 1.2208                 1.2338
 IR Inten    --    104.6942                14.6172                 4.4308

                     25                     26                     27
                      A                      A                      A
 Frequencies --   1223.7232              1258.8239              1295.2584
 Red. masses --      1.3830                 1.6495                 1.2931
 Frc consts  --      1.2202                 1.5401                 1.2782
 IR Inten    --     12.2259                10.6557                 0.4969

                     28                     29                     30
                      A                      A                      A
 Frequencies --   1307.6030              1316.8457              1350.3473
 Red. masses --      1.3619                 1.3672                 1.3962
 Frc consts  --      1.3720                 1.3969                 1.5000
 IR Inten    --      7.3960                11.3611                 5.5484

                     31                     32                     33
                      A                      A                      A
 Frequencies --   1361.9124              1370.8394              1387.8168
 Red. masses --      1.6419                 1.3190                 1.4164
 Frc consts  --      1.7943                 1.4604                 1.6073
 IR Inten    --      1.1234                 1.7413                 1.7683

                     34                     35                     36
                      A                      A                      A
 Frequencies --   1465.9876              1490.6886              1527.4429
 Red. masses --      1.0769                 1.0896                 1.0909
 Frc consts  --      1.3636                 1.4265                 1.4996
 IR Inten    --     10.1871                 6.6442                 2.9950

                     37                     38                     39
                      A                      A                      A
 Frequencies --   1804.7304              3031.1794              3040.4141
 Red. masses --     11.5782                 1.0683                 1.0605
 Frc consts  --     22.2186                 5.7829                 5.7759
 IR Inten    --    225.7102                 6.6481                18.5340

                     40                     41                     42
                      A                      A                      A
 Frequencies --   3045.5402              3079.5379              3086.4737
 Red. masses --      1.0569                 1.1027                 1.1093
 Frc consts  --      5.7757                 6.1614                 6.2265
 IR Inten    --     46.3895                13.9615                27.7497

                     43                     44                     45
                      A                      A                      A
 Frequencies --   3105.7452              3107.3927              3119.3036
 Red. masses --      1.0913                 1.0930                 1.0924
 Frc consts  --      6.2020                 6.2184                 6.2623
 IR Inten    --     29.5392                14.5953                15.7657

 - Thermochemistry -
 -------------------
 Temperature   298.150 Kelvin.  Pressure   1.00000 Atm.
 Atom     1 has atomic number  6 and mass  12.00000

 Molecular mass:   128.04734 amu.
 Principal axes and moments of inertia in atomic units:
                           1         2         3
     Eigenvalues --   663.566351006.575731239.92881
           X            0.99998   0.00155   0.00626
           Y           -0.00136   0.99952  -0.03094
           Z           -0.00631   0.03093   0.99950
 This molecule is an asymmetric top.
 Rotational symmetry number  1.
 Warning -- assumption of classical behavior for rotation
           may cause significant error
 Rotational temperatures (Kelvin)      0.13053     0.08605     0.06985
 Rotational constants (GHZ):           2.71976     1.79295     1.45552
 Zero-point vibrational energy     363359.8 (Joules/Mol)
                                   86.84507 (Kcal/Mol)
 Warning -- explicit consideration of   8 degrees of freedom as
           vibrations may cause significant error
 Vibrational temperatures:    144.40   250.04   337.60   495.50   600.59
          (Kelvin)            619.30   704.12   788.20   946.62  1084.61
                             1104.52  1167.12  1182.73  1285.81  1315.07
                             1370.07  1394.04  1444.51  1480.20  1521.92
                             1573.78  1624.88  1696.04  1725.15  1760.66
                             1811.17  1863.59  1881.35  1894.65  1942.85
                             1959.49  1972.33  1996.76  2109.23  2144.77
                             2197.65  2596.60  4361.19  4374.48  4381.85
                             4430.77  4440.75  4468.47  4470.85  4487.98

 Zero-point correction=                           0.138396 (Hartree/Particle)
 Thermal correction to Energy=                    0.145383
 Thermal correction to Enthalpy=                  0.146328
 Thermal correction to Gibbs Free Energy=         0.106900
 Sum of electronic and zero-point Energies=           -459.143132
 Sum of electronic and thermal Energies=              -459.136145
 Sum of electronic and thermal Enthalpies=            -459.135201
 Sum of electronic and thermal Free Energies=         -459.174629

                     E (Thermal)             CV                S
                      KCal/Mol        Cal/Mol-Kelvin    Cal/Mol-Kelvin
 Total                   91.230             27.370             82.983
 Electronic               0.000              0.000              0.000
 Translational            0.889              2.981             40.455
 Rotational               0.889              2.981             28.206
 Vibrational             89.452             21.408             14.322
 Vibration     1          0.604              1.949              3.447
 Vibration     2          0.627              1.875              2.394
 Vibration     3          0.654              1.788              1.843
 Vibration     4          0.723              1.587              1.192
 Vibration     5          0.780              1.432              0.901
 Vibration     6          0.792              1.404              0.857
 Vibration     7          0.845              1.274              0.685
 Vibration     8          0.903              1.144              0.549

                           ! Non-Optimized Parameters !
 Normal termination of Gaussian 16 at Mon Aug 15 14:43:34 2022.
