 Gaussian 16, Revision B.01,
 Gaussian 16:  ES64L-G16RevB.01 20-Dec-2017

 --------------------
 # b3lyp/gen opt freq
 --------------------

 -----------------------
 n-decane, B3LYP/pcseg-2
 -----------------------
 Symbolic Z-matrix:
 Charge =  0 Multiplicity = 1

 SCF Done:  E(RB3LYP) =  -394.498123966     A.U. after   12 cycles
 SCF Done:  E(RB3LYP) =  -394.498125205     A.U. after    5 cycles
 Optimization completed.
    -- Stationary point found.
 Normal termination of Gaussian 16 at Fri Jun 17 16:28:14 2022.

 ------------------------------------------------------------------
 #N Geom=AllCheck Guess=TCheck SCRF=Check GenChk RB3LYP/ChkBas Freq
 ------------------------------------------------------------------

 Structure from the checkpoint file:  "/wrk/irikura/Gau-22731.chk"
 -----------------------
 n-decane, B3LYP/pcseg-2
 -----------------------
 Charge =  0 Multiplicity = 1

                         Standard orientation:
 ---------------------------------------------------------------------
 Center     Atomic      Atomic             Coordinates (Angstroms)
 Number     Number       Type             X           Y           Z
 ---------------------------------------------------------------------
      1          6           0        0.000687    0.764671    0.000000
      2          6           0       -0.000687   -0.764671    0.000000
      3          6           0       -1.399425    1.379654    0.000000
      4          6           0        1.399425   -1.379654    0.000000
      5          6           0       -1.399425    2.908667    0.000000
      6          6           0        1.399425   -2.908667    0.000000
      7          6           0       -2.799643    3.523477    0.000000
      8          6           0        2.799643   -3.523477    0.000000
      9          6           0       -2.789343    5.051329    0.000000
     10          6           0        2.789343   -5.051329    0.000000
     11          1           0        0.552813    1.124719    0.874456
     12          1           0        0.552813    1.124719   -0.874456
     13          1           0       -0.552813   -1.124719    0.874456
     14          1           0       -0.552813   -1.124719   -0.874456
     15          1           0       -1.951416    1.019224   -0.874466
     16          1           0       -1.951416    1.019224    0.874466
     17          1           0        1.951416   -1.019224   -0.874466
     18          1           0        1.951416   -1.019224    0.874466
     19          1           0       -0.848022    3.270394    0.874460
     20          1           0       -0.848022    3.270394   -0.874460
     21          1           0        0.848022   -3.270394    0.874460
     22          1           0        0.848022   -3.270394   -0.874460
     23          1           0       -3.350446    3.162721   -0.873891
     24          1           0       -3.350446    3.162721    0.873891
     25          1           0        3.350446   -3.162721   -0.873891
     26          1           0        3.350446   -3.162721    0.873891
     27          1           0       -3.801502    5.458136    0.000000
     28          1           0       -2.275304    5.442085    0.880558
     29          1           0       -2.275304    5.442085   -0.880558
     30          1           0        3.801502   -5.458136    0.000000
     31          1           0        2.275304   -5.442085    0.880558
     32          1           0        2.275304   -5.442085   -0.880558
 ---------------------------------------------------------------------

 SCF Done:  E(RB3LYP) =  -394.498125205     A.U. after    1 cycles

 The electronic state is 1-AG.
 Alpha  occ. eigenvalues --  -10.16262 -10.16262 -10.16073 -10.16065 -10.16055
 Alpha  occ. eigenvalues --  -10.16044 -10.16035 -10.16030 -10.15629 -10.15629
 Alpha  occ. eigenvalues --   -0.81386  -0.79807  -0.77209  -0.73698  -0.69455
 Alpha  occ. eigenvalues --   -0.64784  -0.60353  -0.57946  -0.57486  -0.57256
 Alpha  occ. eigenvalues --   -0.48762  -0.47319  -0.45040  -0.43698  -0.43041
 Alpha  occ. eigenvalues --   -0.42158  -0.41770  -0.39398  -0.39027  -0.38669
 Alpha  occ. eigenvalues --   -0.36244  -0.36103  -0.34088  -0.34017  -0.33858
 Alpha  occ. eigenvalues --   -0.32843  -0.32579  -0.32401  -0.32150  -0.32132
 Alpha  occ. eigenvalues --   -0.29957
 Alpha virt. eigenvalues --    0.01375   0.01955   0.02962   0.03092   0.03254
 Alpha virt. eigenvalues --    0.04568   0.04611   0.04870   0.06898   0.06972
 Alpha virt. eigenvalues --    0.07418   0.08343   0.09298   0.09349   0.09545

 Mulliken charges:
               1
     1  C   -0.002851
     2  C   -0.002851
     3  C   -0.012761
     4  C   -0.012761
     5  C   -0.019585
     6  C   -0.019585
     7  C   -0.009938
     8  C   -0.009938
     9  C   -0.075861
    10  C   -0.075861
    11  H    0.006287
    12  H    0.006287
    13  H    0.006287
    14  H    0.006287
    15  H    0.005949
    16  H    0.005949
    17  H    0.005949
    18  H    0.005949
    19  H    0.005281
    20  H    0.005281
    21  H    0.005281
    22  H    0.005281
    23  H    0.010127
    24  H    0.010127
    25  H    0.010127
    26  H    0.010127
    27  H    0.029025
    28  H    0.018342
    29  H    0.018342
    30  H    0.029025
    31  H    0.018342
    32  H    0.018342
 Sum of Mulliken charges =  -0.00000

 Dipole moment (field-independent basis, Debye):
    X=             -0.0000    Y=              0.0000    Z=             -0.0000  Tot=              0.0000
 Quadrupole moment (field-independent basis, Debye-Ang):
   XX=            -70.1053   YY=            -72.0136   ZZ=            -67.8622
   XY=              0.1198   XZ=              0.0000   YZ=              0.0000

  Exact polarizability: 126.324 -21.220 150.209   0.000  -0.000 105.855
 Approx polarizability: 168.107   1.036 167.671   0.000  -0.000 165.748

                      1                      2                      3
                     AU                     BU                     AU
 Frequencies --     31.0791                49.6691                53.3159
 Red. masses --      3.3514                 3.4445                 1.4876
 Frc consts  --      0.0019                 0.0050                 0.0025
 IR Inten    --      0.0053                 0.0012                 0.0079

                      4                      5                      6
                     BG                     BG                     AU
 Frequencies --     78.3984               105.8467               129.7149
 Red. masses --      2.8270                 1.5605                 2.3213
 Frc consts  --      0.0102                 0.0103                 0.0230
 IR Inten    --      0.0000                 0.0000                 0.0044

                      7                      8                      9
                     AG                     AU                     BG
 Frequencies --    132.0813               152.9945               164.6858
 Red. masses --      3.1532                 1.7617                 2.0533
 Frc consts  --      0.0324                 0.0243                 0.0328
 IR Inten    --      0.0000                 0.0005                 0.0000

                     10                     11                     12
                     AG                     BU                     BG
 Frequencies --    221.5254               240.3265               242.9635
 Red. masses --      4.0494                 2.9089                 1.1143
 Frc consts  --      0.1171                 0.0990                 0.0388
 IR Inten    --      0.0000                 0.0033                 0.0000

                     13                     14                     15
                     AU                     AG                     BU
 Frequencies --    243.8632               359.9526               399.1680
 Red. masses --      1.1262                 2.7433                 3.4111
 Frc consts  --      0.0395                 0.2094                 0.3202
 IR Inten    --      0.0002                 0.0000                 0.1319

                     16                     17                     18
                     BU                     AG                     AU
 Frequencies --    475.2568               503.0438               731.6782
 Red. masses --      2.7944                 2.9528                 1.0572
 Frc consts  --      0.3719                 0.4402                 0.3335
 IR Inten    --      0.0208                 0.0000                 6.6174

                     19                     20                     21
                     BG                     AU                     BG
 Frequencies --    732.7337               740.5242               763.2559
 Red. masses --      1.0676                 1.0897                 1.1277
 Frc consts  --      0.3377                 0.3521                 0.3871
 IR Inten    --      0.0000                 1.3035                 0.0000

                     22                     23                     24
                     AU                     BG                     AG
 Frequencies --    805.9892               864.6784               891.5346
 Red. masses --      1.1715                 1.2010                 2.0913
 Frc consts  --      0.4484                 0.5291                 0.9793
 IR Inten    --      0.6062                 0.0000                 0.0000

                     25                     26                     27
                     BU                     AU                     BU
 Frequencies --    902.6056               930.7300               983.6548
 Red. masses --      1.8614                 1.2017                 4.5751
 Frc consts  --      0.8935                 0.6133                 2.6082
 IR Inten    --      2.9428                 0.3698                 0.0070

                     28                     29                     30
                     BG                     AG                     AG
 Frequencies --    996.2106              1010.1120              1033.5023
 Red. masses --      1.1633                 3.9275                 2.5778
 Frc consts  --      0.6802                 2.3610                 1.6223
 IR Inten    --      0.0000                 0.0000                 0.0000

                     31                     32                     33
                     BU                     AU                     AG
 Frequencies --   1043.9618              1051.3424              1063.6308
 Red. masses --      3.0828                 1.0790                 2.5481
 Frc consts  --      1.9796                 0.7027                 1.6985
 IR Inten    --      0.5219                 0.0809                 0.0000

                     34                     35                     36
                     AG                     BU                     BU
 Frequencies --   1065.0905              1066.2255              1114.6984
 Red. masses --      2.1808                 2.3486                 1.9296
 Frc consts  --      1.4576                 1.5731                 1.4126
 IR Inten    --      0.0000                 0.2273                 4.1430

                     37                     38                     39
                     AG                     BG                     AU
 Frequencies --   1152.9208              1206.3341              1226.9850
 Red. masses --      2.9806                 1.9475                 1.6135
 Frc consts  --      2.3343                 1.6698                 1.4312
 IR Inten    --      0.0000                 0.0000                 0.0012

                     40                     41                     42
                     BU                     BG                     AG
 Frequencies --   1242.6513              1261.7249              1283.9026
 Red. masses --      1.2954                 1.3999                 1.3043
 Frc consts  --      1.1786                 1.3130                 1.2668
 IR Inten    --      1.5570                 0.0000                 0.0000

                     43                     44                     45
                     AU                     BG                     BU
 Frequencies --   1295.7059              1321.6167              1322.6431
 Red. masses --      1.2798                 1.1742                 1.3228
 Frc consts  --      1.2660                 1.2084                 1.3634
 IR Inten    --      0.1592                 0.0000                 1.2971

                     46                     47                     48
                     BG                     AU                     AU
 Frequencies --   1327.2340              1332.9746              1338.8531
 Red. masses --      1.0331                 1.0609                 1.1159
 Frc consts  --      1.0723                 1.1106                 1.1786
 IR Inten    --      0.0000                 0.9202                 0.0433

                     49                     50                     51
                     BG                     AG                     BU
 Frequencies --   1340.3905              1357.7869              1384.5693
 Red. masses --      1.0864                 1.3727                 1.4485
 Frc consts  --      1.1501                 1.4911                 1.6361
 IR Inten    --      0.0000                 0.0000                 1.6698

                     52                     53                     54
                     AG                     AG                     BU
 Frequencies --   1395.8509              1400.0383              1400.4616
 Red. masses --      1.6052                 1.5510                 1.5636
 Frc consts  --      1.8427                 1.7912                 1.8068
 IR Inten    --      0.0000                 0.0000                 1.7007

                     55                     56                     57
                     AG                     BU                     AG
 Frequencies --   1414.3044              1414.7447              1483.4652
 Red. masses --      1.2387                 1.2522                 1.0747
 Frc consts  --      1.4598                 1.4767                 1.3934
 IR Inten    --      0.0000                 3.1747                 0.0000

                     58                     59                     60
                     BU                     AG                     BU
 Frequencies --   1483.5366              1486.6530              1486.9310
 Red. masses --      1.0745                 1.0702                 1.0697
 Frc consts  --      1.3934                 1.3936                 1.3934
 IR Inten    --      0.0003                 0.0000                 0.5040

                     61                     62                     63
                     AG                     BU                     AU
 Frequencies --   1491.0582              1496.0999              1498.8940
 Red. masses --      1.0645                 1.0678                 1.0399
 Frc consts  --      1.3944                 1.4082                 1.3765
 IR Inten    --      0.0000                 1.4774                14.7092

                     64                     65                     66
                     BG                     AG                     BU
 Frequencies --   1498.8949              1502.0363              1508.1744
 Red. masses --      1.0399                 1.0776                 1.0876
 Frc consts  --      1.3765                 1.4324                 1.4575
 IR Inten    --      0.0000                 0.0000                 2.4901

                     67                     68                     69
                     AG                     BU                     AG
 Frequencies --   1513.4920              1517.1340              2993.9621
 Red. masses --      1.0942                 1.0980                 1.0573
 Frc consts  --      1.4768                 1.4890                 5.5838
 IR Inten    --      0.0000                16.1462                 0.0000

                     70                     71                     72
                     BU                     BU                     AG
 Frequencies --   2994.3415              2996.3482              2997.1696
 Red. masses --      1.0569                 1.0581                 1.0573
 Frc consts  --      5.5833                 5.5971                 5.5959
 IR Inten    --      0.1016                 3.2316                 0.0000

                     73                     74                     75
                     AG                     BU                     BG
 Frequencies --   3001.2563              3007.3791              3009.8717
 Red. masses --      1.0589                 1.0594                 1.0984
 Frc consts  --      5.6197                 5.6454                 5.8629
 IR Inten    --      0.0000                 3.0142                 0.0000

                     76                     77                     78
                     AU                     AG                     BU
 Frequencies --   3010.8622              3011.8402              3014.1820
 Red. masses --      1.0992                 1.0596                 1.0593
 Frc consts  --      5.8712                 5.6632                 5.6701
 IR Inten    --      0.0638                 0.0000               229.7781

                     79                     80                     81
                     BG                     AU                     BU
 Frequencies --   3015.2253              3022.6533              3023.1016
 Red. masses --      1.1009                 1.1029                 1.0356
 Frc consts  --      5.8971                 5.9370                 5.5762
 IR Inten    --      0.0000                 0.0203                97.3162

                     82                     83                     84
                     AG                     BG                     AU
 Frequencies --   3023.1524              3032.0815              3041.5460
 Red. masses --      1.0355                 1.1046                 1.1055
 Frc consts  --      5.5758                 5.9830                 6.0253
 IR Inten    --      0.0000                 0.0000                 5.6505

                     85                     86                     87
                     BG                     AU                     BG
 Frequencies --   3049.7504              3056.9793              3082.3682
 Red. masses --      1.1056                 1.1053                 1.1024
 Frc consts  --      6.0587                 6.0856                 6.1711
 IR Inten    --      0.0000               183.3602                 0.0000

                     88                     89                     90
                     AU                     BU                     AG
 Frequencies --   3082.4529              3087.3770              3087.3922
 Red. masses --      1.1024                 1.1009                 1.1009
 Frc consts  --      6.1714                 6.1827                 6.1827
 IR Inten    --    134.2819                85.3583                 0.0000

 - Thermochemistry -
 -------------------
 Temperature   298.150 Kelvin.  Pressure   1.00000 Atm.
 Atom     1 has atomic number  6 and mass  12.00000

 Molecular mass:   142.17215 amu.
 Principal axes and moments of inertia in atomic units:
                           1         2         3
     Eigenvalues --   210.609797144.919357245.16589
           X           -0.52737   0.84963   0.00000
           Y            0.84963   0.52737   0.00000
           Z           -0.00000  -0.00000   1.00000
 This molecule is an asymmetric top.
 Rotational symmetry number  2.
 Rotational temperatures (Kelvin)      0.41125     0.01212     0.01195
 Rotational constants (GHZ):           8.56912     0.25259     0.24910
 Zero-point vibrational energy     791960.2 (Joules/Mol)
                                  189.28302 (Kcal/Mol)
 Warning -- explicit consideration of  17 degrees of freedom as
           vibrations may cause significant error
 Vibrational temperatures:     44.72    71.46    76.71   112.80   152.29
          (Kelvin)            186.63   190.04   220.12   236.95   318.73
                              345.78   349.57   350.86   517.89   574.31
                              683.79   723.77  1052.72  1054.24  1065.45
                             1098.16  1159.64  1244.08  1282.72  1298.65
                             1339.11  1415.26  1433.32  1453.33  1486.98
                             1502.03  1512.65  1530.33  1532.43  1534.06
                             1603.80  1658.80  1735.65  1765.36  1787.90
                             1815.34  1847.25  1864.23  1901.51  1902.99
                             1909.59  1917.85  1926.31  1928.52  1953.55
                             1992.09  2008.32  2014.34  2014.95  2034.87
                             2035.50  2134.38  2134.48  2138.96  2139.36
                             2145.30  2152.55  2156.57  2156.58  2161.10
                             2169.93  2177.58  2182.82  4307.64  4308.19
                             4311.08  4312.26  4318.14  4326.95  4330.53
                             4331.96  4333.37  4336.74  4338.24  4348.92
                             4349.57  4349.64  4362.49  4376.11  4387.91
                             4398.31  4434.84  4434.96  4442.05  4442.07

 Zero-point correction=                           0.301642 (Hartree/Particle)
 Thermal correction to Energy=                    0.315542
 Thermal correction to Enthalpy=                  0.316486
 Thermal correction to Gibbs Free Energy=         0.260542
 Sum of electronic and zero-point Energies=           -394.196484
 Sum of electronic and thermal Energies=              -394.182583
 Sum of electronic and thermal Enthalpies=            -394.181639
 Sum of electronic and thermal Free Energies=         -394.237583

                     E (Thermal)             CV                S
                      KCal/Mol        Cal/Mol-Kelvin    Cal/Mol-Kelvin
 Total                  198.005             48.900            117.744
 Electronic               0.000              0.000              0.000
 Translational            0.889              2.981             40.767
 Rotational               0.889              2.981             29.390
 Vibrational            196.228             42.939             47.587
 Vibration     1          0.594              1.983              5.759
 Vibration     2          0.595              1.978              4.831
 Vibration     3          0.596              1.976              4.690
 Vibration     4          0.600              1.964              3.931
 Vibration     5          0.605              1.945              3.344
 Vibration     6          0.612              1.924              2.950
 Vibration     7          0.612              1.921              2.916
 Vibration     8          0.619              1.899              2.635
 Vibration     9          0.623              1.886              2.495
 Vibration    10          0.648              1.808              1.947
 Vibration    11          0.657              1.779              1.800
 Vibration    12          0.659              1.774              1.781
 Vibration    13          0.659              1.773              1.775
 Vibration    14          0.734              1.555              1.122
 Vibration    15          0.765              1.472              0.966
 Vibration    16          0.832              1.305              0.723
 Vibration    17          0.858              1.243              0.651

 Optimization completed.
    -- Stationary point found.
 Normal termination of Gaussian 16 at Fri Jun 17 16:48:32 2022.
