 Gaussian 16, Revision B.01,

 ---------------------------------------
 # b3lyp/gen opt freq CPHF(Grid=OneStep)
 ---------------------------------------

 -----------------------
 n-decane, B3LYP/pcseg-2
 -----------------------
 Symbolic Z-matrix:
 Charge =  0 Multiplicity = 1

 SCF Done:  E(RB3LYP) =  -394.498125206     A.U. after   12 cycles
 Optimization completed.
    -- Stationary point found.
 Normal termination of Gaussian 16 at Wed Sep 27 20:07:42 2023.

 ------------------------------------------------------------------
 #N Geom=AllCheck Guess=TCheck SCRF=Check GenChk RB3LYP/ChkBas Freq
 ------------------------------------------------------------------

 Structure from the checkpoint file:  "decane.chk"
 -----------------------
 n-decane, B3LYP/pcseg-2
 -----------------------
 Charge =  0 Multiplicity = 1

 SCF Done:  E(RB3LYP) =  -394.498125206     A.U. after    1 cycles

  Exact polarizability: 126.324 -21.221 150.208   0.000  -0.000 105.855
 Approx polarizability: 168.107   1.036 167.671  -0.000   0.000 165.748

                      1                      2                      3
                     AU                     BU                     AU
 Frequencies --     31.0789                49.6711                53.3239
 Red. masses --      3.3514                 3.4445                 1.4876
 Frc consts  --      0.0019                 0.0050                 0.0025
 IR Inten    --      0.0053                 0.0012                 0.0079

                      4                      5                      6
                     BG                     BG                     AU
 Frequencies --     78.3975               105.8471               129.7151
 Red. masses --      2.8270                 1.5605                 2.3213
 Frc consts  --      0.0102                 0.0103                 0.0230
 IR Inten    --      0.0000                 0.0000                 0.0044

                      7                      8                      9
                     AG                     AU                     BG
 Frequencies --    132.0832               152.9939               164.6855
 Red. masses --      3.1532                 1.7618                 2.0533
 Frc consts  --      0.0324                 0.0243                 0.0328
 IR Inten    --      0.0000                 0.0005                 0.0000

                     10                     11                     12
                     AG                     BU                     BG
 Frequencies --    221.5263               240.3295               242.9674
 Red. masses --      4.0494                 2.9089                 1.1143
 Frc consts  --      0.1171                 0.0990                 0.0388
 IR Inten    --      0.0000                 0.0033                 0.0000

                     13                     14                     15
                     AU                     AG                     BU
 Frequencies --    243.8671               359.9562               399.1703
 Red. masses --      1.1262                 2.7433                 3.4111
 Frc consts  --      0.0395                 0.2094                 0.3202
 IR Inten    --      0.0002                 0.0000                 0.1318

                     16                     17                     18
                     BU                     AG                     AU
 Frequencies --    475.2621               503.0481               731.6783
 Red. masses --      2.7944                 2.9528                 1.0572
 Frc consts  --      0.3719                 0.4403                 0.3335
 IR Inten    --      0.0208                 0.0000                 6.6184

                     19                     20                     21
                     BG                     AU                     BG
 Frequencies --    732.7330               740.5232               763.2535
 Red. masses --      1.0676                 1.0897                 1.1277
 Frc consts  --      0.3377                 0.3521                 0.3871
 IR Inten    --      0.0000                 1.3037                 0.0000

                     22                     23                     24
                     AU                     BG                     AG
 Frequencies --    805.9883               864.6759               891.5334
 Red. masses --      1.1715                 1.2010                 2.0913
 Frc consts  --      0.4484                 0.5291                 0.9793
 IR Inten    --      0.6062                 0.0000                 0.0000

                     25                     26                     27
                     BU                     AU                     BU
 Frequencies --    902.6048               930.7270               983.6550
 Red. masses --      1.8614                 1.2017                 4.5750
 Frc consts  --      0.8935                 0.6133                 2.6081
 IR Inten    --      2.9435                 0.3698                 0.0070

                     28                     29                     30
                     BG                     AG                     AG
 Frequencies --    996.2078              1010.1134              1033.5042
 Red. masses --      1.1633                 3.9274                 2.5778
 Frc consts  --      0.6802                 2.3610                 1.6223
 IR Inten    --      0.0000                 0.0000                 0.0000

                     31                     32                     33
                     BU                     AU                     AG
 Frequencies --   1043.9623              1051.3420              1063.6323
 Red. masses --      3.0828                 1.0790                 2.5483
 Frc consts  --      1.9796                 0.7027                 1.6986
 IR Inten    --      0.5219                 0.0810                 0.0000

                     34                     35                     36
                     AG                     BU                     BU
 Frequencies --   1065.0943              1066.2271              1114.7006
 Red. masses --      2.1807                 2.3486                 1.9296
 Frc consts  --      1.4576                 1.5731                 1.4127
 IR Inten    --      0.0000                 0.2273                 4.1426

                     37                     38                     39
                     AG                     BG                     AU
 Frequencies --   1152.9203              1206.3351              1226.9867
 Red. masses --      2.9806                 1.9475                 1.6135
 Frc consts  --      2.3343                 1.6698                 1.4312
 IR Inten    --      0.0000                 0.0000                 0.0012

                     40                     41                     42
                     BU                     BG                     AG
 Frequencies --   1242.6584              1261.7274              1283.9062
 Red. masses --      1.2954                 1.3999                 1.3043
 Frc consts  --      1.1786                 1.3130                 1.2668
 IR Inten    --      1.5585                 0.0000                 0.0000

                     43                     44                     45
                     AU                     BG                     BU
 Frequencies --   1295.7069              1321.6179              1322.6459
 Red. masses --      1.2798                 1.1743                 1.3228
 Frc consts  --      1.2660                 1.2085                 1.3634
 IR Inten    --      0.1592                 0.0000                 1.2965

                     46                     47                     48
                     BG                     AU                     AU
 Frequencies --   1327.2435              1332.9764              1338.8530
 Red. masses --      1.0331                 1.0609                 1.1159
 Frc consts  --      1.0722                 1.1107                 1.1785
 IR Inten    --      0.0000                 0.9204                 0.0431

                     49                     50                     51
                     BG                     AG                     BU
 Frequencies --   1340.3914              1357.7908              1384.5683
 Red. masses --      1.0864                 1.3727                 1.4485
 Frc consts  --      1.1501                 1.4911                 1.6361
 IR Inten    --      0.0000                 0.0000                 1.6705

                     52                     53                     54
                     AG                     AG                     BU
 Frequencies --   1395.8484              1400.0397              1400.4597
 Red. masses --      1.6052                 1.5510                 1.5636
 Frc consts  --      1.8427                 1.7912                 1.8068
 IR Inten    --      0.0000                 0.0000                 1.7018

                     55                     56                     57
                     AG                     BU                     AG
 Frequencies --   1414.3038              1414.7443              1483.4651
 Red. masses --      1.2387                 1.2522                 1.0747
 Frc consts  --      1.4598                 1.4767                 1.3934
 IR Inten    --      0.0000                 3.1751                 0.0000

                     58                     59                     60
                     BU                     AG                     BU
 Frequencies --   1483.5366              1486.6549              1486.9289
 Red. masses --      1.0745                 1.0702                 1.0697
 Frc consts  --      1.3934                 1.3936                 1.3934
 IR Inten    --      0.0003                 0.0000                 0.5048

                     61                     62                     63
                     AG                     BU                     AU
 Frequencies --   1491.0560              1496.0962              1498.8908
 Red. masses --      1.0645                 1.0678                 1.0399
 Frc consts  --      1.3944                 1.4082                 1.3765
 IR Inten    --      0.0000                 1.4793                14.7088

                     64                     65                     66
                     BG                     AG                     BU
 Frequencies --   1498.8917              1502.0332              1508.1738
 Red. masses --      1.0399                 1.0776                 1.0876
 Frc consts  --      1.3765                 1.4324                 1.4575
 IR Inten    --      0.0000                 0.0000                 2.4923

                     67                     68                     69
                     AG                     BU                     AG
 Frequencies --   1513.4929              1517.1381              2993.9565
 Red. masses --      1.0943                 1.0980                 1.0573
 Frc consts  --      1.4768                 1.4890                 5.5838
 IR Inten    --      0.0000                16.1435                 0.0000

                     70                     71                     72
                     BU                     BU                     AG
 Frequencies --   2994.3397              2996.3442              2997.1661
 Red. masses --      1.0569                 1.0581                 1.0573
 Frc consts  --      5.5832                 5.5971                 5.5958
 IR Inten    --      0.1035                 3.2313                 0.0000

                     73                     74                     75
                     AG                     BU                     BG
 Frequencies --   3001.2557              3007.3800              3009.8684
 Red. masses --      1.0589                 1.0594                 1.0984
 Frc consts  --      5.6197                 5.6454                 5.8629
 IR Inten    --      0.0000                 3.0407                 0.0000

                     76                     77                     78
                     AU                     AG                     BU
 Frequencies --   3010.8631              3011.8422              3014.1812
 Red. masses --      1.0992                 1.0596                 1.0593
 Frc consts  --      5.8712                 5.6632                 5.6701
 IR Inten    --      0.0643                 0.0000               229.6948

                     79                     80                     81
                     BG                     AU                     BU
 Frequencies --   3015.2274              3022.6606              3023.0974
 Red. masses --      1.1009                 1.1029                 1.0356
 Frc consts  --      5.8971                 5.9370                 5.5762
 IR Inten    --      0.0000                 0.0204                97.3437

                     82                     83                     84
                     AG                     BG                     AU
 Frequencies --   3023.1481              3032.0887              3041.5477
 Red. masses --      1.0355                 1.1046                 1.1055
 Frc consts  --      5.5757                 5.9831                 6.0253
 IR Inten    --      0.0000                 0.0000                 5.6438

                     85                     86                     87
                     BG                     AU                     BG
 Frequencies --   3049.7492              3056.9746              3082.3646
 Red. masses --      1.1056                 1.1053                 1.1024
 Frc consts  --      6.0587                 6.0856                 6.1711
 IR Inten    --      0.0000               183.3562                 0.0000

                     88                     89                     90
                     AU                     BU                     AG
 Frequencies --   3082.4493              3087.3701              3087.3852
 Red. masses --      1.1024                 1.1009                 1.1009
 Frc consts  --      6.1714                 6.1827                 6.1827
 IR Inten    --    134.2890                85.3751                 0.0000

 - Thermochemistry -
 -------------------
 Temperature   298.150 Kelvin.  Pressure   1.00000 Atm.
 Atom     1 has atomic number  6 and mass  12.00000

 Molecular mass:   142.17215 amu.
 Principal axes and moments of inertia in atomic units:
                           1         2         3
     Eigenvalues --   210.609807144.918837245.16540
           X           -0.52737   0.84963   0.00000
           Y            0.84963   0.52737   0.00000
           Z           -0.00000   0.00000   1.00000
 This molecule is an asymmetric top.
 Rotational symmetry number  2.
 Rotational temperatures (Kelvin)      0.41125     0.01212     0.01195
 Rotational constants (GHZ):           8.56912     0.25259     0.24910
 Zero-point vibrational energy     791960.3 (Joules/Mol)
                                  189.28305 (Kcal/Mol)
 Warning -- explicit consideration of  17 degrees of freedom as
           vibrations may cause significant error
 Vibrational temperatures:     44.72    71.47    76.72   112.80   152.29
          (Kelvin)            186.63   190.04   220.12   236.95   318.73
                              345.78   349.58   350.87   517.90   574.32
                              683.80   723.77  1052.72  1054.24  1065.45
                             1098.15  1159.64  1244.08  1282.72  1298.65
                             1339.11  1415.26  1433.32  1453.33  1486.98
                             1502.03  1512.65  1530.33  1532.43  1534.06
                             1603.81  1658.80  1735.65  1765.36  1787.91
                             1815.34  1847.25  1864.23  1901.51  1902.99
                             1909.61  1917.86  1926.31  1928.52  1953.56
                             1992.08  2008.31  2014.34  2014.95  2034.87
                             2035.50  2134.38  2134.48  2138.96  2139.36
                             2145.30  2152.55  2156.57  2156.57  2161.09
                             2169.93  2177.58  2182.82  4307.64  4308.19
                             4311.07  4312.25  4318.14  4326.95  4330.53
                             4331.96  4333.37  4336.73  4338.24  4348.93
                             4349.56  4349.64  4362.50  4376.11  4387.91
                             4398.30  4434.84  4434.96  4442.04  4442.06

 Zero-point correction=                           0.301642 (Hartree/Particle)
 Thermal correction to Energy=                    0.315542
 Thermal correction to Enthalpy=                  0.316486
 Thermal correction to Gibbs Free Energy=         0.260542
 Sum of electronic and zero-point Energies=           -394.196483
 Sum of electronic and thermal Energies=              -394.182583
 Sum of electronic and thermal Enthalpies=            -394.181639
 Sum of electronic and thermal Free Energies=         -394.237583

                     E (Thermal)             CV                S
                      KCal/Mol        Cal/Mol-Kelvin    Cal/Mol-Kelvin
 Total                  198.005             48.900            117.744
 Electronic               0.000              0.000              0.000
 Translational            0.889              2.981             40.767
 Rotational               0.889              2.981             29.390
 Vibrational            196.228             42.938             47.587
 Vibration     1          0.594              1.983              5.759
 Vibration     2          0.595              1.978              4.830
 Vibration     3          0.596              1.976              4.690
 Vibration     4          0.600              1.964              3.931
 Vibration     5          0.605              1.945              3.344
 Vibration     6          0.612              1.924              2.950
 Vibration     7          0.612              1.921              2.915
 Vibration     8          0.619              1.899              2.635
 Vibration     9          0.623              1.886              2.495
 Vibration    10          0.648              1.808              1.947
 Vibration    11          0.657              1.779              1.800
 Vibration    12          0.659              1.774              1.781
 Vibration    13          0.659              1.773              1.774
 Vibration    14          0.734              1.555              1.122
 Vibration    15          0.765              1.472              0.966
 Vibration    16          0.832              1.305              0.723
 Vibration    17          0.858              1.243              0.651

 Optimization completed.
    -- Stationary point found.
 Normal termination of Gaussian 16 at Wed Sep 27 21:23:01 2023.
 Gaussian 16:  ES64L-G16RevB.01 20-Dec-2017

 ---------------------------------
 # rohf/gen geom=check guess=check
 ---------------------------------

 --------------------------
 n-decane, ROHF/cc-pVTZ-F12
 --------------------------
 Structure from the checkpoint file:  "decane.chk"
 Charge =  0 Multiplicity = 1

                         Standard orientation:
 ---------------------------------------------------------------------
 Center     Atomic      Atomic             Coordinates (Angstroms)
 Number     Number       Type             X           Y           Z
 ---------------------------------------------------------------------
      1          6           0        0.000687    0.764671    0.000000
      2          6           0       -0.000687   -0.764671    0.000000
      3          6           0       -1.399425    1.379654    0.000000
      4          6           0        1.399425   -1.379654    0.000000
      5          6           0       -1.399425    2.908667    0.000000
      6          6           0        1.399425   -2.908667    0.000000
      7          6           0       -2.799643    3.523477    0.000000
      8          6           0        2.799643   -3.523477    0.000000
      9          6           0       -2.789343    5.051329    0.000000
     10          6           0        2.789343   -5.051329    0.000000
     11          1           0        0.552813    1.124719    0.874456
     12          1           0        0.552813    1.124719   -0.874456
     13          1           0       -0.552813   -1.124719    0.874456
     14          1           0       -0.552813   -1.124719   -0.874456
     15          1           0       -1.951416    1.019224   -0.874466
     16          1           0       -1.951416    1.019224    0.874466
     17          1           0        1.951416   -1.019224   -0.874466
     18          1           0        1.951416   -1.019224    0.874466
     19          1           0       -0.848022    3.270394    0.874460
     20          1           0       -0.848022    3.270394   -0.874460
     21          1           0        0.848022   -3.270394    0.874460
     22          1           0        0.848022   -3.270394   -0.874460
     23          1           0       -3.350446    3.162721   -0.873891
     24          1           0       -3.350446    3.162721    0.873891
     25          1           0        3.350446   -3.162721   -0.873891
     26          1           0        3.350446   -3.162721    0.873891
     27          1           0       -3.801502    5.458136    0.000000
     28          1           0       -2.275304    5.442085    0.880558
     29          1           0       -2.275304    5.442085   -0.880558
     30          1           0        3.801502   -5.458136    0.000000
     31          1           0        2.275304   -5.442085    0.880558
     32          1           0        2.275304   -5.442085   -0.880558
 ---------------------------------------------------------------------

 SCF Done:  E(ROHF) =  -391.664287743     A.U. after    9 cycles

 The electronic state is 1-AG.
 Alpha  occ. eigenvalues --  -11.21296 -11.21296 -11.21107 -11.21092 -11.21068
 Alpha  occ. eigenvalues --  -11.21041 -11.21016 -11.20996 -11.20722 -11.20722
 Alpha  occ. eigenvalues --   -1.09260  -1.07267  -1.03975  -0.99522  -0.94138
 Alpha  occ. eigenvalues --   -0.88203  -0.82532  -0.78941  -0.78441  -0.78046
 Alpha  occ. eigenvalues --   -0.65791  -0.64015  -0.61218  -0.59266  -0.58439
 Alpha  occ. eigenvalues --   -0.57701  -0.56968  -0.53920  -0.53879  -0.53327
 Alpha  occ. eigenvalues --   -0.50431  -0.50252  -0.47769  -0.47630  -0.47344
 Alpha  occ. eigenvalues --   -0.46236  -0.46036  -0.45674  -0.45666  -0.45383
 Alpha  occ. eigenvalues --   -0.42268
 Alpha virt. eigenvalues --    0.04351   0.04571   0.04990   0.05604   0.06093
 Alpha virt. eigenvalues --    0.06304   0.06909   0.07297   0.07540   0.08269
 Alpha virt. eigenvalues --    0.08792   0.08876   0.09260   0.09717   0.09916

 Mulliken charges and spin densities:
               1          2
     1  C   -0.110446   0.000000
     2  C   -0.110446   0.000000
     3  C   -0.135314   0.000000
     4  C   -0.135314   0.000000
     5  C   -0.120649   0.000000
     6  C   -0.120649   0.000000
     7  C   -0.134534   0.000000
     8  C   -0.134534   0.000000
     9  C   -0.322890   0.000000
    10  C   -0.322890   0.000000
    11  H    0.068713   0.000000
    12  H    0.068713   0.000000
    13  H    0.068713   0.000000
    14  H    0.068713   0.000000
    15  H    0.070290   0.000000
    16  H    0.070290   0.000000
    17  H    0.070290   0.000000
    18  H    0.070290   0.000000
    19  H    0.067061   0.000000
    20  H    0.067061   0.000000
    21  H    0.067061   0.000000
    22  H    0.067061   0.000000
    23  H    0.075193   0.000000
    24  H    0.075193   0.000000
    25  H    0.075193   0.000000
    26  H    0.075193   0.000000
    27  H    0.088578   0.000000
    28  H    0.086371   0.000000
    29  H    0.086371   0.000000
    30  H    0.088578   0.000000
    31  H    0.086371   0.000000
    32  H    0.086371   0.000000
 Sum of Mulliken charges =  -0.00000   0.00000

 Dipole moment (field-independent basis, Debye):
    X=              0.0000    Y=              0.0000    Z=              0.0000  Tot=              0.0000
 Quadrupole moment (field-independent basis, Debye-Ang):
   XX=            -69.8733   YY=            -71.8671   ZZ=            -67.5219
   XY=              0.3385   XZ=              0.0000   YZ=             -0.0000

 Normal termination of Gaussian 16 at Wed Sep 27 21:36:40 2023.
