 Gaussian 16, Revision B.01,

 ---------------------------------------
 # b3lyp/gen opt freq CPHF(Grid=OneStep)
 ---------------------------------------

 ------------------------
 dioxirane, B3LYP/pcseg-2
 ------------------------
 Symbolic Z-matrix:
 Charge =  0 Multiplicity = 1

 SCF Done:  E(RB3LYP) =  -189.700755116     A.U. after   11 cycles
 Optimization completed.
    -- Stationary point found.
 Normal termination of Gaussian 16 at Sat Sep 30 01:30:58 2023.

 ------------------------------------------------------------------
 #N Geom=AllCheck Guess=TCheck SCRF=Check GenChk RB3LYP/ChkBas Freq
 ------------------------------------------------------------------

 Structure from the checkpoint file:  "dioxirane.chk"
 ------------------------
 dioxirane, B3LYP/pcseg-2
 ------------------------
 Charge =  0 Multiplicity = 1

 SCF Done:  E(RB3LYP) =  -189.700755116     A.U. after    1 cycles

  Exact polarizability:  16.563  -0.000  20.351   0.000  -0.000  22.117
 Approx polarizability:  20.484   0.000  36.771  -0.000   0.000  30.399

                      1                      2                      3
                     A1                     B2                     A2
 Frequencies --    814.9998               894.0702              1028.7359
 Red. masses --     13.1249                 9.4131                 1.0981
 Frc consts  --      5.1364                 4.4333                 0.6847
 IR Inten    --      1.7387                25.6481                 0.0000

                      4                      5                      6
                     B1                     B2                     A1
 Frequencies --   1179.7554              1261.6164              1308.7475
 Red. masses --      1.2980                 1.2252                 5.2805
 Frc consts  --      1.0644                 1.1490                 5.3289
 IR Inten    --      7.9439                 2.9034                47.4315

                      7                      8                      9
                     A1                     A1                     B1
 Frequencies --   1547.7609              3060.0407              3154.0618
 Red. masses --      1.1593                 1.0460                 1.1228
 Frc consts  --      1.6362                 5.7711                 6.5811
 IR Inten    --      3.6297                36.1272                26.9770

 - Thermochemistry -
 -------------------
 Temperature   298.150 Kelvin.  Pressure   1.00000 Atm.
 Atom     1 has atomic number  6 and mass  12.00000

 Molecular mass:    46.00548 amu.
 Principal axes and moments of inertia in atomic units:
                           1         2         3
     Eigenvalues --    62.49184  70.32067 120.47522
           X           -0.00000   0.00000   1.00000
           Y            1.00000   0.00000   0.00000
           Z           -0.00000   1.00000   0.00000
 This molecule is an asymmetric top.
 Rotational symmetry number  2.
 Rotational temperatures (Kelvin)      1.38600     1.23170     0.71894
 Rotational constants (GHZ):          28.87963    25.66445    14.98019
 Zero-point vibrational energy      85232.7 (Joules/Mol)
                                   20.37110 (Kcal/Mol)
 Vibrational temperatures:   1172.60  1286.37  1480.12  1697.40  1815.18
          (Kelvin)           1883.00  2226.88  4402.72  4537.99

 Zero-point correction=                           0.032463 (Hartree/Particle)
 Thermal correction to Energy=                    0.035504
 Thermal correction to Enthalpy=                  0.036449
 Thermal correction to Gibbs Free Energy=         0.009148
 Sum of electronic and zero-point Energies=           -189.668292
 Sum of electronic and thermal Energies=              -189.665251
 Sum of electronic and thermal Enthalpies=            -189.664307
 Sum of electronic and thermal Free Energies=         -189.691607

                     E (Thermal)             CV                S
                      KCal/Mol        Cal/Mol-Kelvin    Cal/Mol-Kelvin
 Total                   22.279              8.037             57.459
 Electronic               0.000              0.000              0.000
 Translational            0.889              2.981             37.404
 Rotational               0.889              2.981             19.521
 Vibrational             20.502              2.075              0.535

 Optimization completed.
    -- Stationary point found.
 Normal termination of Gaussian 16 at Sat Sep 30 01:31:33 2023.
 Gaussian 16:  ES64L-G16RevB.01 20-Dec-2017

 ---------------------------------
 # rohf/gen geom=check guess=check
 ---------------------------------

 ---------------------------
 dioxirane, ROHF/cc-pVTZ-F12
 ---------------------------
 Structure from the checkpoint file:  "dioxirane.chk"
 Charge =  0 Multiplicity = 1

                         Standard orientation:
 ---------------------------------------------------------------------
 Center     Atomic      Atomic             Coordinates (Angstroms)
 Number     Number       Type             X           Y           Z
 ---------------------------------------------------------------------
      1          6           0       -0.000000    0.000000    0.730385
      2          1           0        0.925739   -0.000000    1.301892
      3          1           0       -0.925739    0.000000    1.301892
      4          8           0       -0.000000    0.749377   -0.436631
      5          8           0       -0.000000   -0.749377   -0.436631
 ---------------------------------------------------------------------

 SCF Done:  E(ROHF) =  -188.691925805     A.U. after   11 cycles

 The electronic state is 1-A1.
 Alpha  occ. eigenvalues --  -20.65034 -20.65009 -11.36930  -1.54975  -1.19253
 Alpha  occ. eigenvalues --   -0.93133  -0.75048  -0.69889  -0.57723  -0.57188
 Alpha  occ. eigenvalues --   -0.53021  -0.48784
 Alpha virt. eigenvalues --    0.04850   0.05578   0.06263   0.07697   0.13094
 Alpha virt. eigenvalues --    0.16049   0.17520   0.17764   0.17788   0.18329
 Alpha virt. eigenvalues --    0.21337   0.22438   0.23953   0.26350   0.28197

 Mulliken charges and spin densities:
               1          2
     1  C    0.338294   0.000000
     2  H    0.124052   0.000000
     3  H    0.124052   0.000000
     4  O   -0.293199   0.000000
     5  O   -0.293199   0.000000
 Sum of Mulliken charges =  -0.00000   0.00000

 Dipole moment (field-independent basis, Debye):
    X=             -0.0000    Y=              0.0000    Z=              2.9498  Tot=              2.9498
 Quadrupole moment (field-independent basis, Debye-Ang):
   XX=            -16.3999   YY=            -18.0842   ZZ=            -15.5078
   XY=             -0.0000   XZ=             -0.0000   YZ=             -0.0000

 Normal termination of Gaussian 16 at Sat Sep 30 01:31:40 2023.
