 Gaussian 16, Revision B.01,

 ---------------------------------------
 # b3lyp/gen opt freq CPHF(Grid=OneStep)
 ---------------------------------------

 -----------------------------------------
 1,3-Dioxolane geometry opt, B3LYP/pcseg-2
 -----------------------------------------
 Symbolic Z-matrix:
 Charge =  0 Multiplicity = 1

 SCF Done:  E(RB3LYP) =  -268.459711353     A.U. after   12 cycles
 Optimization completed.
    -- Stationary point found.
 Normal termination of Gaussian 16 at Sat Sep 30 00:21:38 2023.

 ------------------------------------------------------------------
 #N Geom=AllCheck Guess=TCheck SCRF=Check GenChk RB3LYP/ChkBas Freq
 ------------------------------------------------------------------

 Structure from the checkpoint file:  "dioxolane.chk"
 -----------------------------------------
 1,3-Dioxolane geometry opt, B3LYP/pcseg-2
 -----------------------------------------
 Charge =  0 Multiplicity = 1

 SCF Done:  E(RB3LYP) =  -268.459711353     A.U. after    1 cycles

  Exact polarizability:  48.480  -0.364  40.591   0.416   0.621  38.499
 Approx polarizability:  62.698  -0.533  55.468  -0.238  -0.259  53.663

                      1                      2                      3
                      A                      A                      A
 Frequencies --     53.5705               269.8549               676.2470
 Red. masses --      2.2770                 2.0898                 2.6911
 Frc consts  --      0.0038                 0.0897                 0.7251
 IR Inten    --      5.0366                10.9749                 5.0064

                      4                      5                      6
                      A                      A                      A
 Frequencies --    737.3025               871.2197               927.9065
 Red. masses --      8.1667                 1.6532                 3.4361
 Frc consts  --      2.6157                 0.7393                 1.7431
 IR Inten    --      0.2756                15.7971                63.4195

                      7                      8                      9
                      A                      A                      A
 Frequencies --    952.7850               971.9980              1051.6402
 Red. masses --      2.6872                 4.9740                 5.6452
 Frc consts  --      1.4373                 2.7688                 3.6784
 IR Inten    --     21.9799                33.0923                38.2187

                     10                     11                     12
                      A                      A                      A
 Frequencies --   1109.4394              1151.7045              1183.3073
 Red. masses --      3.5827                 1.7757                 1.8186
 Frc consts  --      2.5981                 1.3877                 1.5003
 IR Inten    --    132.7140                21.4437                49.5279

                     13                     14                     15
                      A                      A                      A
 Frequencies --   1203.9042              1235.1241              1268.8925
 Red. masses --      1.0961                 1.1267                 1.2122
 Frc consts  --      0.9360                 1.0127                 1.1499
 IR Inten    --      6.1683                 3.7685                 6.2887

                     16                     17                     18
                      A                      A                      A
 Frequencies --   1353.9286              1374.4302              1424.6192
 Red. masses --      1.2291                 1.2946                 1.2615
 Frc consts  --      1.3275                 1.4409                 1.5085
 IR Inten    --      0.3751                 0.3614                 7.8414

                     19                     20                     21
                      A                      A                      A
 Frequencies --   1513.2664              1528.7191              1546.6423
 Red. masses --      1.0907                 1.0873                 1.1059
 Frc consts  --      1.4716                 1.4972                 1.5586
 IR Inten    --      2.0952                 1.1954                 2.0540

                     22                     23                     24
                      A                      A                      A
 Frequencies --   2948.6032              2997.3602              3035.1496
 Red. masses --      1.0705                 1.0719                 1.0568
 Frc consts  --      5.4837                 5.6740                 5.7362
 IR Inten    --    111.3456                50.9567                53.7495

                     25                     26                     27
                      A                      A                      A
 Frequencies --   3073.9501              3094.8935              3119.3824
 Red. masses --      1.1084                 1.0947                 1.0958
 Frc consts  --      6.1707                 6.1777                 6.2823
 IR Inten    --     40.2724                35.3990                23.2571

 - Thermochemistry -
 -------------------
 Temperature   298.150 Kelvin.  Pressure   1.00000 Atm.
 Atom     1 has atomic number  6 and mass  12.00000

 Molecular mass:    74.03678 amu.
 Principal axes and moments of inertia in atomic units:
                           1         2         3
     Eigenvalues --   230.94936 238.59793 421.81921
           X            0.25204   0.96766   0.01047
           Y            0.96753  -0.25219   0.01695
           Z           -0.01905  -0.00585   0.99980
 This molecule is an asymmetric top.
 Rotational symmetry number  1.
 Rotational temperatures (Kelvin)      0.37503     0.36301     0.20533
 Rotational constants (GHZ):           7.81445     7.56394     4.27847
 Zero-point vibrational energy     243295.6 (Joules/Mol)
                                   58.14903 (Kcal/Mol)
 Warning -- explicit consideration of   2 degrees of freedom as
           vibrations may cause significant error
 Vibrational temperatures:     77.08   388.26   972.97  1060.81  1253.49
          (Kelvin)           1335.05  1370.85  1398.49  1513.08  1596.24
                             1657.05  1702.52  1732.15  1777.07  1825.65
                             1948.00  1977.50  2049.71  2177.25  2199.49
                             2225.27  4242.38  4312.53  4366.90  4422.73
                             4452.86  4488.10

 Zero-point correction=                           0.092666 (Hartree/Particle)
 Thermal correction to Energy=                    0.097374
 Thermal correction to Enthalpy=                  0.098318
 Thermal correction to Gibbs Free Energy=         0.064449
 Sum of electronic and zero-point Energies=           -268.367045
 Sum of electronic and thermal Energies=              -268.362338
 Sum of electronic and thermal Enthalpies=            -268.361393
 Sum of electronic and thermal Free Energies=         -268.395262

                     E (Thermal)             CV                S
                      KCal/Mol        Cal/Mol-Kelvin    Cal/Mol-Kelvin
 Total                   61.103             15.286             71.283
 Electronic               0.000              0.000              0.000
 Translational            0.889              2.981             38.822
 Rotational               0.889              2.981             24.656
 Vibrational             59.326              9.324              7.805
 Vibration     1          0.596              1.976              4.681
 Vibration     2          0.674              1.729              1.597

 Optimization completed.
    -- Stationary point found.
 Normal termination of Gaussian 16 at Sat Sep 30 00:31:08 2023.
 Gaussian 16:  ES64L-G16RevB.01 20-Dec-2017

 ---------------------------------
 # rohf/gen geom=check guess=check
 ---------------------------------

 --------------------------------------------
 1,3-Dioxolane geometry opt, ROHF/cc-pVTZ-F12
 --------------------------------------------
 Structure from the checkpoint file:  "dioxolane.chk"
 Charge =  0 Multiplicity = 1

                         Standard orientation:
 ---------------------------------------------------------------------
 Center     Atomic      Atomic             Coordinates (Angstroms)
 Number     Number       Type             X           Y           Z
 ---------------------------------------------------------------------
      1          6           0        1.182683   -0.076138    0.132178
      2          6           0       -1.030485   -0.670505   -0.068978
      3          6           0       -0.858513    0.835883    0.159286
      4          8           0        0.307757   -1.178791   -0.039767
      5          8           0        0.479204    1.072596   -0.268487
      6          1           0        1.478735   -0.000065    1.188644
      7          1           0        2.058136   -0.196434   -0.503814
      8          1           0       -1.469985   -0.890968   -1.043231
      9          1           0       -0.972387    1.096499    1.217462
     10          1           0       -1.525243    1.452772   -0.437718
     11          1           0       -1.627064   -1.147681    0.709769
 ---------------------------------------------------------------------

 SCF Done:  E(ROHF) =  -266.911365159     A.U. after   10 cycles

 The electronic state is 1-A.
 Alpha  occ. eigenvalues --  -20.56852 -20.56064 -11.32813 -11.28634 -11.28314
 Alpha  occ. eigenvalues --   -1.43865  -1.33177  -1.03213  -0.86996  -0.85392
 Alpha  occ. eigenvalues --   -0.71725  -0.70574  -0.63741  -0.61401  -0.58231
 Alpha  occ. eigenvalues --   -0.56565  -0.51620  -0.49923  -0.44758  -0.42588
 Alpha virt. eigenvalues --    0.04655   0.05018   0.05588   0.06376   0.08391
 Alpha virt. eigenvalues --    0.08490   0.08921   0.09127   0.10422   0.11868
 Alpha virt. eigenvalues --    0.15918   0.16477   0.19598   0.19908   0.21135

 Mulliken charges and spin densities:
               1          2
     1  C    0.266245   0.000000
     2  C    0.115173   0.000000
     3  C    0.061831   0.000000
     4  O   -0.556337   0.000000
     5  O   -0.531490   0.000000
     6  H    0.095182   0.000000
     7  H    0.153290   0.000000
     8  H    0.105707   0.000000
     9  H    0.085514   0.000000
    10  H    0.115693   0.000000
    11  H    0.089192   0.000000
 Sum of Mulliken charges =  -0.00000   0.00000

 Dipole moment (field-independent basis, Debye):
    X=             -1.3153    Y=              0.3599    Z=              0.8358  Tot=              1.5994
 Quadrupole moment (field-independent basis, Debye-Ang):
   XX=            -25.8341   YY=            -34.9627   ZZ=            -29.5358
   XY=             -0.7086   XZ=              0.5231   YZ=              0.7380

 Normal termination of Gaussian 16 at Sat Sep 30 00:34:34 2023.
