 Gaussian 16, Revision B.01,
 Gaussian 16:  ES64L-G16RevB.01 20-Dec-2017

 --------------------
 # b3lyp/gen opt freq
 --------------------

 ------------------------
 dioxirane, B3LYP/pcseg-2
 ------------------------
 Symbolic Z-matrix:
 Charge =  0 Multiplicity = 1

 SCF Done:  E(RB3LYP) =  -189.700744335     A.U. after   11 cycles
 SCF Done:  E(RB3LYP) =  -189.700755116     A.U. after    7 cycles
 Optimization completed.
    -- Stationary point found.
 Normal termination of Gaussian 16 at Thu Jun 16 16:11:52 2022.

 ------------------------------------------------------------------
 #N Geom=AllCheck Guess=TCheck SCRF=Check GenChk RB3LYP/ChkBas Freq
 ------------------------------------------------------------------

 Structure from the checkpoint file:  "/wrk/irikura/Gau-1013.chk"
 ------------------------
 dioxirane, B3LYP/pcseg-2
 ------------------------
 Charge =  0 Multiplicity = 1

                         Standard orientation:
 ---------------------------------------------------------------------
 Center     Atomic      Atomic             Coordinates (Angstroms)
 Number     Number       Type             X           Y           Z
 ---------------------------------------------------------------------
      1          6           0        0.000000    0.000000    0.730385
      2          1           0        0.925739   -0.000000    1.301892
      3          1           0       -0.925739    0.000000    1.301892
      4          8           0        0.000000    0.749377   -0.436631
      5          8           0       -0.000000   -0.749377   -0.436631
 ---------------------------------------------------------------------

 SCF Done:  E(RB3LYP) =  -189.700755116     A.U. after    1 cycles

 The electronic state is 1-A1.
 Alpha  occ. eigenvalues --  -19.21198 -19.21192 -10.30335  -1.20126  -0.88506
 Alpha  occ. eigenvalues --   -0.69072  -0.54343  -0.52124  -0.44491  -0.41884
 Alpha  occ. eigenvalues --   -0.35404  -0.29193
 Alpha virt. eigenvalues --   -0.05068   0.01784   0.02231   0.05922   0.08849
 Alpha virt. eigenvalues --    0.21759   0.21846   0.24426   0.28901   0.31019
 Alpha virt. eigenvalues --    0.31505   0.31911   0.37148   0.38040   0.40419

 Mulliken charges:
               1
     1  C    0.404985
     2  H    0.041136
     3  H    0.041136
     4  O   -0.243629
     5  O   -0.243629
 Sum of Mulliken charges =   0.00000

 Dipole moment (field-independent basis, Debye):
    X=             -0.0000    Y=             -0.0000    Z=              2.6203  Tot=              2.6203
 Quadrupole moment (field-independent basis, Debye-Ang):
   XX=            -16.7348   YY=            -18.0380   ZZ=            -15.8331
   XY=             -0.0000   XZ=             -0.0000   YZ=             -0.0000

  Exact polarizability:  16.564  -0.000  20.351   0.000  -0.000  22.117
 Approx polarizability:  20.484   0.000  36.771   0.000  -0.000  30.399

                      1                      2                      3
                     A1                     B2                     A2
 Frequencies --    815.0057               894.0665              1028.7388
 Red. masses --     13.1249                 9.4133                 1.0981
 Frc consts  --      5.1365                 4.4334                 0.6847
 IR Inten    --      1.7391                25.6500                 0.0000

                      4                      5                      6
                     B1                     B2                     A1
 Frequencies --   1179.7560              1261.6153              1308.7427
 Red. masses --      1.2980                 1.2252                 5.2806
 Frc consts  --      1.0644                 1.1490                 5.3290
 IR Inten    --      7.9446                 2.9027                47.4318

                      7                      8                      9
                     A1                     A1                     B1
 Frequencies --   1547.7651              3060.0453              3154.0682
 Red. masses --      1.1593                 1.0460                 1.1228
 Frc consts  --      1.6362                 5.7711                 6.5811
 IR Inten    --      3.6299                36.1309                26.9754

 - Thermochemistry -
 -------------------
 Temperature   298.150 Kelvin.  Pressure   1.00000 Atm.
 Atom     1 has atomic number  6 and mass  12.00000

 Molecular mass:    46.00548 amu.
 Principal axes and moments of inertia in atomic units:
                           1         2         3
     Eigenvalues --    62.49186  70.32068 120.47524
           X            0.00000   0.00000   1.00000
           Y            1.00000   0.00000   0.00000
           Z            0.00000   1.00000   0.00000
 This molecule is an asymmetric top.
 Rotational symmetry number  2.
 Rotational temperatures (Kelvin)      1.38600     1.23170     0.71894
 Rotational constants (GHZ):          28.87962    25.66444    14.98018
 Zero-point vibrational energy      85232.8 (Joules/Mol)
                                   20.37112 (Kcal/Mol)
 Vibrational temperatures:   1172.61  1286.36  1480.13  1697.41  1815.18
          (Kelvin)           1882.99  2226.89  4402.72  4538.00

 Zero-point correction=                           0.032463 (Hartree/Particle)
 Thermal correction to Energy=                    0.035504
 Thermal correction to Enthalpy=                  0.036449
 Thermal correction to Gibbs Free Energy=         0.009148
 Sum of electronic and zero-point Energies=           -189.668292
 Sum of electronic and thermal Energies=              -189.665251
 Sum of electronic and thermal Enthalpies=            -189.664306
 Sum of electronic and thermal Free Energies=         -189.691607

                     E (Thermal)             CV                S
                      KCal/Mol        Cal/Mol-Kelvin    Cal/Mol-Kelvin
 Total                   22.279              8.037             57.459
 Electronic               0.000              0.000              0.000
 Translational            0.889              2.981             37.404
 Rotational               0.889              2.981             19.521
 Vibrational             20.502              2.075              0.535

 Optimization completed.
    -- Stationary point found.
 Normal termination of Gaussian 16 at Thu Jun 16 16:12:03 2022.
