 Gaussian 16, Revision B.01,
 Gaussian 16:  ES64L-G16RevB.01 20-Dec-2017

 ---------------------------------------
 # b3lyp/gen opt freq CPHF(Grid=OneStep)
 ---------------------------------------

 --------------------------------------------------
 1,3-Dioxolane geometry opt, B3LYP/pcseg-2, 2nd try
 --------------------------------------------------
 Symbolic Z-matrix:
 Charge =  0 Multiplicity = 1

 SCF Done:  E(RB3LYP) =  -268.458469512     A.U. after   12 cycles
 SCF Done:  E(RB3LYP) =  -268.459560141     A.U. after   10 cycles
 SCF Done:  E(RB3LYP) =  -268.459606154     A.U. after    8 cycles
 SCF Done:  E(RB3LYP) =  -268.459621543     A.U. after    8 cycles
 SCF Done:  E(RB3LYP) =  -268.459627641     A.U. after    8 cycles
 SCF Done:  E(RB3LYP) =  -268.459631902     A.U. after    7 cycles
 SCF Done:  E(RB3LYP) =  -268.459637419     A.U. after    9 cycles
 SCF Done:  E(RB3LYP) =  -268.459652130     A.U. after    9 cycles
 SCF Done:  E(RB3LYP) =  -268.459628004     A.U. after   11 cycles
 SCF Done:  E(RB3LYP) =  -268.459679518     A.U. after   10 cycles
 SCF Done:  E(RB3LYP) =  -268.459662404     A.U. after    9 cycles
 SCF Done:  E(RB3LYP) =  -268.459697636     A.U. after   11 cycles
 SCF Done:  E(RB3LYP) =  -268.459690732     A.U. after   10 cycles
 SCF Done:  E(RB3LYP) =  -268.459708794     A.U. after   10 cycles
 SCF Done:  E(RB3LYP) =  -268.459710753     A.U. after    8 cycles
 SCF Done:  E(RB3LYP) =  -268.459711171     A.U. after    8 cycles
 SCF Done:  E(RB3LYP) =  -268.459711313     A.U. after    7 cycles
 SCF Done:  E(RB3LYP) =  -268.459711353     A.U. after    6 cycles
 Optimization completed.
    -- Stationary point found.
 Normal termination of Gaussian 16 at Sat Sep 16 07:48:10 2023.

 ------------------------------------------------------------------
 #N Geom=AllCheck Guess=TCheck SCRF=Check GenChk RB3LYP/ChkBas Freq
 ------------------------------------------------------------------

 Structure from the checkpoint file:  "dioxolane.chk"
 --------------------------------------------------
 1,3-Dioxolane geometry opt, B3LYP/pcseg-2, 2nd try
 --------------------------------------------------
 Charge =  0 Multiplicity = 1

                         Standard orientation:
 ---------------------------------------------------------------------
 Center     Atomic      Atomic             Coordinates (Angstroms)
 Number     Number       Type             X           Y           Z
 ---------------------------------------------------------------------
      1          6           0        1.182683   -0.076140    0.132178
      2          6           0       -1.030486   -0.670503   -0.068978
      3          6           0       -0.858511    0.835885    0.159286
      4          8           0        0.307755   -1.178792   -0.039767
      5          8           0        0.479206    1.072595   -0.268487
      6          1           0        1.478735   -0.000068    1.188644
      7          1           0        2.058136   -0.196438   -0.503814
      8          1           0       -1.469987   -0.890965   -1.043231
      9          1           0       -0.972385    1.096501    1.217462
     10          1           0       -1.525240    1.452775   -0.437718
     11          1           0       -1.627066   -1.147678    0.709769
 ---------------------------------------------------------------------

 SCF Done:  E(RB3LYP) =  -268.459711353     A.U. after    1 cycles

 The electronic state is 1-A.
 Alpha  occ. eigenvalues --  -19.14148 -19.13263 -10.26977 -10.23177 -10.22818
 Alpha  occ. eigenvalues --   -1.09661  -1.00121  -0.77493  -0.64315  -0.63722
 Alpha  occ. eigenvalues --   -0.52938  -0.51538  -0.47543  -0.45196  -0.41749
 Alpha  occ. eigenvalues --   -0.41719  -0.35419  -0.34917  -0.28630  -0.26756
 Alpha virt. eigenvalues --    0.01220   0.04060   0.04547   0.05448   0.06468
 Alpha virt. eigenvalues --    0.07919   0.08319   0.10225   0.13985   0.15499
 Alpha virt. eigenvalues --    0.16351   0.17867   0.21580   0.23259   0.25670

 Mulliken charges:
               1
     1  C    0.418824
     2  C    0.226242
     3  C    0.122781
     4  O   -0.464660
     5  O   -0.447840
     6  H    0.000313
     7  H    0.035241
     8  H    0.017482
     9  H    0.031088
    10  H    0.041089
    11  H    0.019441
 Sum of Mulliken charges =  -0.00000

 Dipole moment (field-independent basis, Debye):
    X=             -1.2330    Y=              0.3687    Z=              0.7154  Tot=              1.4724
 Quadrupole moment (field-independent basis, Debye-Ang):
   XX=            -26.2974   YY=            -34.9185   ZZ=            -29.9610
   XY=             -0.7137   XZ=              0.4448   YZ=              0.6530

  Exact polarizability:  48.480  -0.364  40.591   0.416   0.621  38.499
 Approx polarizability:  62.698  -0.533  55.468  -0.238  -0.259  53.663

                      1                      2                      3
                      A                      A                      A
 Frequencies --     53.5728               269.8542               676.2470
 Red. masses --      2.2770                 2.0898                 2.6911
 Frc consts  --      0.0039                 0.0897                 0.7251
 IR Inten    --      5.0367                10.9749                 5.0064

                      4                      5                      6
                      A                      A                      A
 Frequencies --    737.3026               871.2198               927.9063
 Red. masses --      8.1667                 1.6532                 3.4362
 Frc consts  --      2.6157                 0.7393                 1.7431
 IR Inten    --      0.2756                15.7972                63.4192

                      7                      8                      9
                      A                      A                      A
 Frequencies --    952.7854               971.9983              1051.6402
 Red. masses --      2.6872                 4.9740                 5.6452
 Frc consts  --      1.4373                 2.7688                 3.6784
 IR Inten    --     21.9798                33.0926                38.2193

                     10                     11                     12
                      A                      A                      A
 Frequencies --   1109.4396              1151.7044              1183.3070
 Red. masses --      3.5826                 1.7757                 1.8186
 Frc consts  --      2.5981                 1.3877                 1.5003
 IR Inten    --    132.7124                21.4438                49.5280

                     13                     14                     15
                      A                      A                      A
 Frequencies --   1203.9039              1235.1236              1268.8925
 Red. masses --      1.0961                 1.1267                 1.2122
 Frc consts  --      0.9360                 1.0127                 1.1499
 IR Inten    --      6.1684                 3.7687                 6.2887

                     16                     17                     18
                      A                      A                      A
 Frequencies --   1353.9286              1374.4306              1424.6188
 Red. masses --      1.2291                 1.2946                 1.2615
 Frc consts  --      1.3275                 1.4409                 1.5085
 IR Inten    --      0.3751                 0.3615                 7.8414

                     19                     20                     21
                      A                      A                      A
 Frequencies --   1513.2661              1528.7186              1546.6418
 Red. masses --      1.0907                 1.0873                 1.1059
 Frc consts  --      1.4716                 1.4972                 1.5586
 IR Inten    --      2.0952                 1.1953                 2.0540

                     22                     23                     24
                      A                      A                      A
 Frequencies --   2948.6061              2997.3563              3035.1488
 Red. masses --      1.0705                 1.0719                 1.0568
 Frc consts  --      5.4837                 5.6740                 5.7362
 IR Inten    --    111.3451                50.9578                53.7478

                     25                     26                     27
                      A                      A                      A
 Frequencies --   3073.9519              3094.8950              3119.3840
 Red. masses --      1.1084                 1.0947                 1.0958
 Frc consts  --      6.1707                 6.1777                 6.2823
 IR Inten    --     40.2737                35.3985                23.2562

 - Thermochemistry -
 -------------------
 Temperature   298.150 Kelvin.  Pressure   1.00000 Atm.
 Atom     1 has atomic number  6 and mass  12.00000

 Molecular mass:    74.03678 amu.
 Principal axes and moments of inertia in atomic units:
                           1         2         3
     Eigenvalues --   230.94937 238.59787 421.81920
           X            0.25205   0.96766   0.01047
           Y            0.96753  -0.25220   0.01695
           Z           -0.01905  -0.00585   0.99980
 This molecule is an asymmetric top.
 Rotational symmetry number  1.
 Rotational temperatures (Kelvin)      0.37503     0.36301     0.20533
 Rotational constants (GHZ):           7.81445     7.56395     4.27847
 Zero-point vibrational energy     243295.6 (Joules/Mol)
                                   58.14904 (Kcal/Mol)
 Warning -- explicit consideration of   2 degrees of freedom as
           vibrations may cause significant error
 Vibrational temperatures:     77.08   388.26   972.97  1060.81  1253.49
          (Kelvin)           1335.05  1370.85  1398.49  1513.08  1596.24
                             1657.05  1702.51  1732.15  1777.07  1825.65
                             1948.00  1977.50  2049.71  2177.25  2199.49
                             2225.27  4242.39  4312.53  4366.90  4422.73
                             4452.86  4488.10

 Zero-point correction=                           0.092666 (Hartree/Particle)
 Thermal correction to Energy=                    0.097374
 Thermal correction to Enthalpy=                  0.098318
 Thermal correction to Gibbs Free Energy=         0.064449
 Sum of electronic and zero-point Energies=           -268.367045
 Sum of electronic and thermal Energies=              -268.362338
 Sum of electronic and thermal Enthalpies=            -268.361393
 Sum of electronic and thermal Free Energies=         -268.395262

                     E (Thermal)             CV                S
                      KCal/Mol        Cal/Mol-Kelvin    Cal/Mol-Kelvin
 Total                   61.103             15.286             71.283
 Electronic               0.000              0.000              0.000
 Translational            0.889              2.981             38.822
 Rotational               0.889              2.981             24.656
 Vibrational             59.326              9.324              7.805
 Vibration     1          0.596              1.976              4.681
 Vibration     2          0.674              1.729              1.597

 Optimization completed.
    -- Stationary point found.
 Normal termination of Gaussian 16 at Sat Sep 16 07:53:09 2023.
