 Gaussian 16, Revision B.01,
 Gaussian 16:  ES64L-G16RevB.01 20-Dec-2017

 --------------------
 # b3lyp/gen opt freq
 --------------------

 --------------------------------------------------
 1,3-Dioxolane geometry opt, B3LYP/pcseg-2, 2nd try
 --------------------------------------------------
 Symbolic Z-matrix:
 Charge =  0 Multiplicity = 1

 SCF Done:  E(RB3LYP) =  -268.458469512     A.U. after   12 cycles
 SCF Done:  E(RB3LYP) =  -268.459560141     A.U. after   10 cycles
 SCF Done:  E(RB3LYP) =  -268.459606154     A.U. after    8 cycles
 SCF Done:  E(RB3LYP) =  -268.459621543     A.U. after    8 cycles
 SCF Done:  E(RB3LYP) =  -268.459627641     A.U. after    8 cycles
 SCF Done:  E(RB3LYP) =  -268.459631902     A.U. after    7 cycles
 SCF Done:  E(RB3LYP) =  -268.459637419     A.U. after    9 cycles
 SCF Done:  E(RB3LYP) =  -268.459652130     A.U. after    9 cycles
 SCF Done:  E(RB3LYP) =  -268.459628004     A.U. after   11 cycles
 SCF Done:  E(RB3LYP) =  -268.459679518     A.U. after   10 cycles
 SCF Done:  E(RB3LYP) =  -268.459662404     A.U. after    9 cycles
 SCF Done:  E(RB3LYP) =  -268.459697636     A.U. after   11 cycles
 SCF Done:  E(RB3LYP) =  -268.459690732     A.U. after   10 cycles
 SCF Done:  E(RB3LYP) =  -268.459708794     A.U. after   10 cycles
 SCF Done:  E(RB3LYP) =  -268.459710753     A.U. after    8 cycles
 SCF Done:  E(RB3LYP) =  -268.459711270     A.U. after    8 cycles
 SCF Done:  E(RB3LYP) =  -268.459711285     A.U. after    7 cycles
 SCF Done:  E(RB3LYP) =  -268.459711341     A.U. after    6 cycles
 SCF Done:  E(RB3LYP) =  -268.459711361     A.U. after    6 cycles
 Optimization completed.
    -- Stationary point found.
 Normal termination of Gaussian 16 at Tue Feb  8 02:11:42 2022.

 ------------------------------------------------------------------
 #N Geom=AllCheck Guess=TCheck SCRF=Check GenChk RB3LYP/ChkBas Freq
 ------------------------------------------------------------------

 Structure from the checkpoint file:  "dioxolane.chk"
 --------------------------------------------------
 1,3-Dioxolane geometry opt, B3LYP/pcseg-2, 2nd try
 --------------------------------------------------
 Charge =  0 Multiplicity = 1

                         Standard orientation:
 ---------------------------------------------------------------------
 Center     Atomic      Atomic             Coordinates (Angstroms)
 Number     Number       Type             X           Y           Z
 ---------------------------------------------------------------------
      1          6           0        1.182718   -0.076103    0.132167
      2          6           0       -1.030473   -0.670584   -0.068890
      3          6           0       -0.858617    0.835857    0.159165
      4          8           0        0.307833   -1.178766   -0.039840
      5          8           0        0.479196    1.072658   -0.268342
      6          1           0        1.478851   -0.000132    1.188608
      7          1           0        2.058100   -0.196310   -0.503946
      8          1           0       -1.470089   -0.891229   -1.043041
      9          1           0       -0.972772    1.096641    1.217265
     10          1           0       -1.525227    1.452611   -0.438106
     11          1           0       -1.626856   -1.147736    0.710019
 ---------------------------------------------------------------------

 SCF Done:  E(RB3LYP) =  -268.459711361     A.U. after    1 cycles

 The electronic state is 1-A.
 Alpha  occ. eigenvalues --  -19.14148 -19.13263 -10.26976 -10.23177 -10.22819
 Alpha  occ. eigenvalues --   -1.09660  -1.00120  -0.77493  -0.64314  -0.63723
 Alpha  occ. eigenvalues --   -0.52938  -0.51537  -0.47542  -0.45196  -0.41749
 Alpha  occ. eigenvalues --   -0.41719  -0.35420  -0.34916  -0.28629  -0.26756
 Alpha virt. eigenvalues --    0.01220   0.04060   0.04547   0.05448   0.06467
 Alpha virt. eigenvalues --    0.07919   0.08319   0.10225   0.13984   0.15498
 Alpha virt. eigenvalues --    0.16351   0.17868   0.21578   0.23259   0.25670

 Mulliken charges:
               1
     1  C    0.418820
     2  C    0.226200
     3  C    0.122825
     4  O   -0.464659
     5  O   -0.447852
     6  H    0.000317
     7  H    0.035234
     8  H    0.017494
     9  H    0.031088
    10  H    0.041080
    11  H    0.019452
 Sum of Mulliken charges =  -0.00000

 Dipole moment (field-independent basis, Debye):
    X=             -1.2332    Y=              0.3684    Z=              0.7152  Tot=              1.4724
 Quadrupole moment (field-independent basis, Debye-Ang):
   XX=            -26.2976   YY=            -34.9188   ZZ=            -29.9605
   XY=             -0.7133   XZ=              0.4448   YZ=              0.6523

  Exact polarizability:  48.480  -0.364  40.591   0.416   0.621  38.498
 Approx polarizability:  62.698  -0.532  55.467  -0.239  -0.259  53.661

                      1                      2                      3
                      A                      A                      A
 Frequencies --     53.1555               269.6609               676.3010
 Red. masses --      2.2769                 2.0900                 2.6925
 Frc consts  --      0.0038                 0.0895                 0.7256
 IR Inten    --      5.0331                10.9768                 5.0085

                      4                      5                      6
                      A                      A                      A
 Frequencies --    737.3075               871.1732               927.9037
 Red. masses --      8.1679                 1.6525                 3.4372
 Frc consts  --      2.6161                 0.7389                 1.7437
 IR Inten    --      0.2759                15.7724                63.3953

                      7                      8                      9
                      A                      A                      A
 Frequencies --    952.7982               971.9549              1051.6197
 Red. masses --      2.6887                 4.9688                 5.6487
 Frc consts  --      1.4381                 2.7656                 3.6806
 IR Inten    --     22.0579                33.0307                38.2607

                     10                     11                     12
                      A                      A                      A
 Frequencies --   1109.4412              1151.7143              1183.3031
 Red. masses --      3.5834                 1.7756                 1.8185
 Frc consts  --      2.5987                 1.3876                 1.5002
 IR Inten    --    132.7358                21.4312                49.5238

                     13                     14                     15
                      A                      A                      A
 Frequencies --   1203.9157              1235.1151              1268.8576
 Red. masses --      1.0961                 1.1267                 1.2121
 Frc consts  --      0.9360                 1.0127                 1.1498
 IR Inten    --      6.1606                 3.7677                 6.2834

                     16                     17                     18
                      A                      A                      A
 Frequencies --   1353.9313              1374.4131              1424.6150
 Red. masses --      1.2291                 1.2946                 1.2615
 Frc consts  --      1.3275                 1.4409                 1.5084
 IR Inten    --      0.3755                 0.3592                 7.8430

                     19                     20                     21
                      A                      A                      A
 Frequencies --   1513.2794              1528.7196              1546.6348
 Red. masses --      1.0907                 1.0873                 1.1059
 Frc consts  --      1.4716                 1.4972                 1.5586
 IR Inten    --      2.0936                 1.1938                 2.0553

                     22                     23                     24
                      A                      A                      A
 Frequencies --   2948.6864              2997.4001              3035.1973
 Red. masses --      1.0705                 1.0719                 1.0568
 Frc consts  --      5.4840                 5.6742                 5.7363
 IR Inten    --    111.3821                50.9628                53.7563

                     25                     26                     27
                      A                      A                      A
 Frequencies --   3073.9873              3094.8484              3119.4035
 Red. masses --      1.1084                 1.0947                 1.0958
 Frc consts  --      6.1710                 6.1776                 6.2824
 IR Inten    --     40.2472                35.3848                23.2653

 - Thermochemistry -
 -------------------
 Temperature   298.150 Kelvin.  Pressure   1.00000 Atm.
 Atom     1 has atomic number  6 and mass  12.00000

 Molecular mass:    74.03678 amu.
 Principal axes and moments of inertia in atomic units:
                           1         2         3
     Eigenvalues --   230.95678 238.59917 421.84136
           X            0.25214   0.96763   0.01046
           Y            0.96750  -0.25229   0.01694
           Z           -0.01903  -0.00585   0.99980
 This molecule is an asymmetric top.
 Rotational symmetry number  1.
 Rotational temperatures (Kelvin)      0.37502     0.36301     0.20532
 Rotational constants (GHZ):           7.81419     7.56390     4.27825
 Zero-point vibrational energy     243292.5 (Joules/Mol)
                                   58.14831 (Kcal/Mol)
 Warning -- explicit consideration of   2 degrees of freedom as
           vibrations may cause significant error
 Vibrational temperatures:     76.48   387.98   973.05  1060.82  1253.42
          (Kelvin)           1335.05  1370.86  1398.43  1513.05  1596.24
                             1657.06  1702.51  1732.17  1777.06  1825.60
                             1948.01  1977.47  2049.70  2177.27  2199.49
                             2225.26  4242.50  4312.59  4366.97  4422.78
                             4452.80  4488.13

 Zero-point correction=                           0.092665 (Hartree/Particle)
 Thermal correction to Energy=                    0.097374
 Thermal correction to Enthalpy=                  0.098318
 Thermal correction to Gibbs Free Energy=         0.064441
 Sum of electronic and zero-point Energies=           -268.367046
 Sum of electronic and thermal Energies=              -268.362338
 Sum of electronic and thermal Enthalpies=            -268.361393
 Sum of electronic and thermal Free Energies=         -268.395270

                     E (Thermal)             CV                S
                      KCal/Mol        Cal/Mol-Kelvin    Cal/Mol-Kelvin
 Total                   61.103             15.286             71.300
 Electronic               0.000              0.000              0.000
 Translational            0.889              2.981             38.822
 Rotational               0.889              2.981             24.656
 Vibrational             59.326              9.325              7.822
 Vibration     1          0.596              1.976              4.696
 Vibration     2          0.674              1.729              1.598

 Optimization completed.
    -- Stationary point found.
 Normal termination of Gaussian 16 at Tue Feb  8 02:15:27 2022.
