 Gaussian 16, Revision B.01,

 ---------------------------------------
 # b3lyp/gen opt freq CPHF(Grid=OneStep)
 ---------------------------------------

 ----------------------------
 disilyl ether, B3LYP/pcseg-2
 ----------------------------
 Symbolic Z-matrix:
 Charge =  0 Multiplicity = 1

 SCF Done:  E(RB3LYP) =  -658.006264731     A.U. after   10 cycles
 Optimization completed.
    -- Stationary point found.
 Normal termination of Gaussian 16 at Sat Sep 30 04:34:08 2023.

 ------------------------------------------------------------------
 #N Geom=AllCheck Guess=TCheck SCRF=Check GenChk RB3LYP/ChkBas Freq
 ------------------------------------------------------------------

 Structure from the checkpoint file:  "disiloxane.chk"
 ----------------------------
 disilyl ether, B3LYP/pcseg-2
 ----------------------------
 Charge =  0 Multiplicity = 1

 SCF Done:  E(RB3LYP) =  -658.006264731     A.U. after    1 cycles

  Exact polarizability:  51.584   0.000  55.954   0.000   0.000  51.670
 Approx polarizability:  67.023   0.000  62.663  -0.000  -0.000  67.278

                      1                      2                      3
                     B1                     A1                     A2
 Frequencies --     21.3341                36.8247                47.7521
 Red. masses --      3.3442                 4.0049                 1.0085
 Frc consts  --      0.0009                 0.0032                 0.0014
 IR Inten    --      1.6691                 1.4627                 0.0000

                      4                      5                      6
                     A1                     A2                     B2
 Frequencies --    562.6877               720.6647               727.2422
 Red. masses --      6.2949                 1.1120                 1.1137
 Frc consts  --      1.1743                 0.3403                 0.3470
 IR Inten    --      0.3545                 0.0000                 0.6598

                      7                      8                      9
                     A1                     B1                     B2
 Frequencies --    750.6555               754.8508               968.1731
 Red. masses --      1.2371                 1.2459                 1.0551
 Frc consts  --      0.4107                 0.4183                 0.5827
 IR Inten    --    111.6858               119.0891                18.1262

                     10                     11                     12
                     A2                     B2                     B1
 Frequencies --    968.3916               970.4690               973.0765
 Red. masses --      1.0511                 1.1567                 1.0535
 Frc consts  --      0.5807                 0.6419                 0.5877
 IR Inten    --      0.0000               811.5246               169.9887

                     13                     14                     15
                     A1                     A1                     B2
 Frequencies --    973.3451              1031.2523              1162.3553
 Red. masses --      1.0557                 1.1296                 8.0346
 Frc consts  --      0.5893                 0.7078                 6.3958
 IR Inten    --    169.6435                 4.5171               458.6275

                     16                     17                     18
                     A2                     B2                     B1
 Frequencies --   2223.5121              2223.6226              2227.1621
 Red. masses --      1.0516                 1.0282                 1.0527
 Frc consts  --      3.0632                 2.9953                 3.0764
 IR Inten    --      0.0000                78.0316               320.8230

                     19                     20                     21
                     A1                     B2                     A1
 Frequencies --   2231.3565              2235.7667              2242.0369
 Red. masses --      1.0423                 1.0400                 1.0300
 Frc consts  --      3.0575                 3.0630                 3.0505
 IR Inten    --    232.0686                73.3980                79.4638

 - Thermochemistry -
 -------------------
 Temperature   298.150 Kelvin.  Pressure   1.00000 Atm.
 Atom     1 has atomic number  8 and mass  15.99491

 Molecular mass:    77.99572 amu.
 Principal axes and moments of inertia in atomic units:
                           1         2         3
     Eigenvalues --    43.77972 640.12560 642.03354
           X            0.00000   0.00000   1.00000
           Y            1.00000   0.00000  -0.00000
           Z           -0.00000   1.00000  -0.00000
 This molecule is an asymmetric top.
 Rotational symmetry number  2.
 Rotational temperatures (Kelvin)      1.97840     0.13531     0.13491
 Rotational constants (GHZ):          41.22322     2.81935     2.81098
 Zero-point vibrational energy     143866.1 (Joules/Mol)
                                   34.38482 (Kcal/Mol)
 Warning -- explicit consideration of   4 degrees of freedom as
           vibrations may cause significant error
 Vibrational temperatures:     30.70    52.98    68.70   809.58  1036.88
          (Kelvin)           1046.34  1080.03  1086.06  1392.99  1393.30
                             1396.29  1400.04  1400.43  1483.74  1672.37
                             3199.14  3199.30  3204.39  3210.42  3216.77
                             3225.79

 Zero-point correction=                           0.054796 (Hartree/Particle)
 Thermal correction to Energy=                    0.061062
 Thermal correction to Enthalpy=                  0.062006
 Thermal correction to Gibbs Free Energy=         0.023485
 Sum of electronic and zero-point Energies=           -657.951469
 Sum of electronic and thermal Energies=              -657.945203
 Sum of electronic and thermal Enthalpies=            -657.944259
 Sum of electronic and thermal Free Energies=         -657.982780

                     E (Thermal)             CV                S
                      KCal/Mol        Cal/Mol-Kelvin    Cal/Mol-Kelvin
 Total                   38.317             18.708             81.074
 Electronic               0.000              0.000              0.000
 Translational            0.889              2.981             38.977
 Rotational               0.889              2.981             23.024
 Vibrational             36.539             12.746             19.073
 Vibration     1          0.593              1.985              6.506
 Vibration     2          0.594              1.982              5.423
 Vibration     3          0.595              1.978              4.908
 Vibration     4          0.918              1.112              0.518

 Optimization completed.
    -- Stationary point found.
 Normal termination of Gaussian 16 at Sat Sep 30 04:35:46 2023.
 Gaussian 16:  ES64L-G16RevB.01 20-Dec-2017

 ---------------------------------
 # rohf/gen geom=check guess=check
 ---------------------------------

 -------------------------------
 disilyl ether, ROHF/cc-pVTZ-F12
 -------------------------------
 Structure from the checkpoint file:  "disiloxane.chk"
 Charge =  0 Multiplicity = 1

                         Standard orientation:
 ---------------------------------------------------------------------
 Center     Atomic      Atomic             Coordinates (Angstroms)
 Number     Number       Type             X           Y           Z
 ---------------------------------------------------------------------
      1          8           0        0.000000    0.000000    0.176895
      2         14           0       -0.000000    1.617079   -0.030862
      3         14           0       -0.000000   -1.617079   -0.030862
      4          1           0        0.000000    2.276567    1.292716
      5          1           0        1.205936    2.030937   -0.784113
      6          1           0       -1.205936    2.030937   -0.784113
      7          1           0       -0.000000   -2.276567    1.292716
      8          1           0       -1.205936   -2.030937   -0.784113
      9          1           0        1.205936   -2.030937   -0.784113
 ---------------------------------------------------------------------

 SCF Done:  E(ROHF) =  -656.389083571     A.U. after    9 cycles

 The electronic state is 1-A1.
 Alpha  occ. eigenvalues --  -68.79668 -68.79668 -20.55377  -6.14006  -6.14005
 Alpha  occ. eigenvalues --   -4.24732  -4.24730  -4.24678  -4.24677  -4.24676
 Alpha  occ. eigenvalues --   -4.24675  -1.33877  -0.80013  -0.67664  -0.59821
 Alpha  occ. eigenvalues --   -0.58733  -0.58721  -0.48765  -0.48696  -0.44982
 Alpha  occ. eigenvalues --   -0.44965
 Alpha virt. eigenvalues --    0.03615   0.04345   0.04803   0.04809   0.05689
 Alpha virt. eigenvalues --    0.06363   0.06394   0.10261   0.12670   0.13643
 Alpha virt. eigenvalues --    0.15003   0.15266   0.16130   0.16886   0.18669

 Mulliken charges and spin densities:
               1          2
     1  O   -1.210815   0.000000
     2  Si   1.313931   0.000000
     3  Si   1.313931   0.000000
     4  H   -0.232881   0.000000
     5  H   -0.237821   0.000000
     6  H   -0.237821   0.000000
     7  H   -0.232881   0.000000
     8  H   -0.237821   0.000000
     9  H   -0.237821   0.000000
 Sum of Mulliken charges =  -0.00000   0.00000

 Dipole moment (field-independent basis, Debye):
    X=              0.0000    Y=             -0.0000    Z=             -0.1545  Tot=              0.1545
 Quadrupole moment (field-independent basis, Debye-Ang):
   XX=            -36.3037   YY=            -35.0967   ZZ=            -36.3394
   XY=             -0.0000   XZ=             -0.0000   YZ=              0.0000

 Normal termination of Gaussian 16 at Sat Sep 30 04:36:13 2023.
