 Gaussian 16, Revision B.01,
 Gaussian 16:  ES64L-G16RevB.01 20-Dec-2017

 ---------------------------------------
 # b3lyp/gen opt freq CPHF(Grid=OneStep)
 ---------------------------------------

 ----------------------------
 dimethylamine, B3LYP/pcseg-2
 ----------------------------
 Symbolic Z-matrix:
 Charge =  0 Multiplicity = 1

 SCF Done:  E(RB3LYP) =  -135.225364110     A.U. after   11 cycles
 SCF Done:  E(RB3LYP) =  -135.225453266     A.U. after    8 cycles
 SCF Done:  E(RB3LYP) =  -135.225461434     A.U. after    7 cycles
 SCF Done:  E(RB3LYP) =  -135.225463879     A.U. after    7 cycles
 SCF Done:  E(RB3LYP) =  -135.225464380     A.U. after    6 cycles
 Optimization completed.
    -- Stationary point found.
 Normal termination of Gaussian 16 at Sat Sep 16 07:56:02 2023.

 ------------------------------------------------------------------
 #N Geom=AllCheck Guess=TCheck SCRF=Check GenChk RB3LYP/ChkBas Freq
 ------------------------------------------------------------------

 Structure from the checkpoint file:  "/wrk/irikura/Gau-185391.chk"
 ----------------------------
 dimethylamine, B3LYP/pcseg-2
 ----------------------------
 Charge =  0 Multiplicity = 1

                         Standard orientation:
 ---------------------------------------------------------------------
 Center     Atomic      Atomic             Coordinates (Angstroms)
 Number     Number       Type             X           Y           Z
 ---------------------------------------------------------------------
      1          7           0        0.026366    0.577022   -0.000000
      2          1           0       -0.762696    1.208594   -0.000000
      3          6           0        0.026366   -0.221152    1.215366
      4          6           0        0.026366   -0.221152   -1.215366
      5          1           0       -0.800029   -0.947366    1.273046
      6          1           0       -0.800029   -0.947366   -1.273046
      7          1           0        0.960982   -0.781477    1.282368
      8          1           0        0.960982   -0.781477   -1.282368
      9          1           0       -0.030086    0.431885    2.085933
     10          1           0       -0.030086    0.431885   -2.085933
 ---------------------------------------------------------------------

 SCF Done:  E(RB3LYP) =  -135.225464380     A.U. after    1 cycles

 The electronic state is 1-A'.
 Alpha  occ. eigenvalues --  -14.29745 -10.18552 -10.18552  -0.89945  -0.70195
 Alpha  occ. eigenvalues --   -0.62938  -0.49170  -0.44421  -0.43872  -0.38930
 Alpha  occ. eigenvalues --   -0.36855  -0.36614  -0.22604
 Alpha virt. eigenvalues --    0.01259   0.04311   0.04527   0.07053   0.07648
 Alpha virt. eigenvalues --    0.09623   0.11396   0.12314   0.16279   0.17424
 Alpha virt. eigenvalues --    0.18888   0.19333   0.27507   0.27914   0.27984

 Mulliken charges:
               1
     1  N   -0.329465
     2  H    0.094479
     3  C    0.061998
     4  C    0.061998
     5  H   -0.000180
     6  H   -0.000180
     7  H    0.026300
     8  H    0.026300
     9  H    0.029375
    10  H    0.029375
 Sum of Mulliken charges =  -0.00000

 Dipole moment (field-independent basis, Debye):
    X=             -0.9099    Y=             -0.3204    Z=              0.0000  Tot=              0.9646
 Quadrupole moment (field-independent basis, Debye-Ang):
   XX=            -21.1709   YY=            -21.6502   ZZ=            -20.0354
   XY=             -2.1697   XZ=             -0.0000   YZ=              0.0000

  Exact polarizability:  33.236   0.390  35.437  -0.000   0.000  40.795
 Approx polarizability:  45.472   0.094  48.144  -0.000  -0.000  48.359

                      1                      2                      3
                     A"                     A'                     A'
 Frequencies --    231.4501               257.9006               381.3976
 Red. masses --      1.0324                 1.2041                 2.1680
 Frc consts  --      0.0326                 0.0472                 0.1858
 IR Inten    --      0.0941                 2.5752                 6.4538

                      4                      5                      6
                     A'                     A'                     A"
 Frequencies --    756.2613               938.5962              1035.6731
 Red. masses --      1.2829                 2.3249                 1.1903
 Frc consts  --      0.4323                 1.2068                 0.7522
 IR Inten    --    118.0285                 4.3403                 8.1401

                      7                      8                      9
                     A"                     A"                     A'
 Frequencies --   1101.8039              1169.0746              1185.1847
 Red. masses --      1.3173                 3.5543                 1.4630
 Frc consts  --      0.9422                 2.8622                 1.2108
 IR Inten    --      0.0001                32.5500                 8.2273

                     10                     11                     12
                     A'                     A"                     A'
 Frequencies --   1266.6834              1443.9333              1468.9856
 Red. masses --      1.7179                 1.1526                 1.1764
 Frc consts  --      1.6240                 1.4159                 1.4957
 IR Inten    --      0.1186                 2.0230                 1.1693

                     13                     14                     15
                     A"                     A"                     A'
 Frequencies --   1474.9624              1486.3357              1493.2500
 Red. masses --      1.1379                 1.0836                 1.0628
 Frc consts  --      1.4585                 1.4104                 1.3962
 IR Inten    --      5.7557                 2.4467                10.5334

                     16                     17                     18
                     A'                     A"                     A"
 Frequencies --   1516.2662              1516.5628              2926.6652
 Red. masses --      1.0404                 1.0681                 1.0612
 Frc consts  --      1.4094                 1.4474                 5.3552
 IR Inten    --      2.8086                13.1348                49.9712

                     19                     20                     21
                     A'                     A'                     A"
 Frequencies --   2930.5329              3046.8506              3047.4052
 Red. masses --      1.0626                 1.0704                 1.0732
 Frc consts  --      5.3765                 5.8548                 5.8722
 IR Inten    --    166.7454                47.9061                24.0252

                     22                     23                     24
                     A"                     A'                     A'
 Frequencies --   3095.4918              3095.8840              3532.0897
 Red. masses --      1.1006                 1.1002                 1.0743
 Frc consts  --      6.2134                 6.2127                 7.8968
 IR Inten    --     26.3475                33.0284                 0.2912

 - Thermochemistry -
 -------------------
 Temperature   298.150 Kelvin.  Pressure   1.00000 Atm.
 Atom     1 has atomic number  7 and mass  14.00307

 Molecular mass:    45.05785 amu.
 Principal axes and moments of inertia in atomic units:
                           1         2         3
     Eigenvalues --    51.57622 194.45168 219.96192
           X            0.00000  -0.12462   0.99220
           Y            0.00000   0.99220   0.12462
           Z            1.00000  -0.00000  -0.00000
 This molecule is an asymmetric top.
 Rotational symmetry number  1.
 Rotational temperatures (Kelvin)      1.67934     0.44543     0.39377
 Rotational constants (GHZ):          34.99173     9.28118     8.20479
 Zero-point vibrational energy     241641.1 (Joules/Mol)
                                   57.75361 (Kcal/Mol)
 Warning -- explicit consideration of   3 degrees of freedom as
           vibrations may cause significant error
 Vibrational temperatures:    333.01   371.06   548.75  1088.09  1350.43
          (Kelvin)           1490.10  1585.25  1682.04  1705.22  1822.47
                             2077.50  2113.54  2122.14  2138.51  2148.45
                             2181.57  2182.00  4210.82  4216.38  4383.74
                             4384.54  4453.72  4454.29  5081.89

 Zero-point correction=                           0.092036 (Hartree/Particle)
 Thermal correction to Energy=                    0.096467
 Thermal correction to Enthalpy=                  0.097411
 Thermal correction to Gibbs Free Energy=         0.066549
 Sum of electronic and zero-point Energies=           -135.133428
 Sum of electronic and thermal Energies=              -135.128997
 Sum of electronic and thermal Enthalpies=            -135.128053
 Sum of electronic and thermal Free Energies=         -135.158915

                     E (Thermal)             CV                S
                      KCal/Mol        Cal/Mol-Kelvin    Cal/Mol-Kelvin
 Total                   60.534             13.967             64.954
 Electronic               0.000              0.000              0.000
 Translational            0.889              2.981             37.342
 Rotational               0.889              2.981             22.316
 Vibrational             58.756              8.005              5.296
 Vibration     1          0.653              1.793              1.868
 Vibration     2          0.667              1.749              1.676
 Vibration     3          0.751              1.510              1.034

 Optimization completed.
    -- Stationary point found.
 Normal termination of Gaussian 16 at Sat Sep 16 07:59:34 2023.
