 Gaussian 16, Revision B.01,
 Gaussian 16:  ES64L-G16RevB.01 20-Dec-2017

 --------------------
 # b3lyp/gen opt freq
 --------------------

 ----------------------------
 dimethylamine, B3LYP/pcseg-2
 ----------------------------
 Symbolic Z-matrix:
 Charge =  0 Multiplicity = 1

 SCF Done:  E(RB3LYP) =  -135.225364110     A.U. after   11 cycles
 SCF Done:  E(RB3LYP) =  -135.225453266     A.U. after    8 cycles
 SCF Done:  E(RB3LYP) =  -135.225461434     A.U. after    7 cycles
 SCF Done:  E(RB3LYP) =  -135.225463879     A.U. after    7 cycles
 SCF Done:  E(RB3LYP) =  -135.225464424     A.U. after    6 cycles
 Optimization completed.
    -- Stationary point found.
 Normal termination of Gaussian 16 at Fri Feb 25 08:59:02 2022.

 ------------------------------------------------------------------
 #N Geom=AllCheck Guess=TCheck SCRF=Check GenChk RB3LYP/ChkBas Freq
 ------------------------------------------------------------------

 Structure from the checkpoint file:  "/wrk/irikura/Gau-27008.chk"
 ----------------------------
 dimethylamine, B3LYP/pcseg-2
 ----------------------------
 Charge =  0 Multiplicity = 1

                         Standard orientation:
 ---------------------------------------------------------------------
 Center     Atomic      Atomic             Coordinates (Angstroms)
 Number     Number       Type             X           Y           Z
 ---------------------------------------------------------------------
      1          7           0        0.026393    0.577061   -0.000000
      2          1           0       -0.763037    1.208287   -0.000000
      3          6           0        0.026393   -0.221134    1.215301
      4          6           0        0.026393   -0.221134   -1.215301
      5          1           0       -0.799549   -0.947963    1.272535
      6          1           0       -0.799549   -0.947963   -1.272535
      7          1           0        0.961349   -0.780891    1.282968
      8          1           0        0.961349   -0.780891   -1.282968
      9          1           0       -0.031019    0.431801    2.085919
     10          1           0       -0.031019    0.431801   -2.085919
 ---------------------------------------------------------------------

 SCF Done:  E(RB3LYP) =  -135.225464424     A.U. after    1 cycles

 The electronic state is 1-A'.
 Alpha  occ. eigenvalues --  -14.29748 -10.18553 -10.18553  -0.89948  -0.70195
 Alpha  occ. eigenvalues --   -0.62937  -0.49171  -0.44422  -0.43874  -0.38929
 Alpha  occ. eigenvalues --   -0.36853  -0.36613  -0.22607
 Alpha virt. eigenvalues --    0.01258   0.04310   0.04526   0.07053   0.07649
 Alpha virt. eigenvalues --    0.09622   0.11395   0.12315   0.16281   0.17424
 Alpha virt. eigenvalues --    0.18887   0.19334   0.27508   0.27911   0.27984

 Mulliken charges:
               1
     1  N   -0.329408
     2  H    0.094510
     3  C    0.061961
     4  C    0.061961
     5  H   -0.000209
     6  H   -0.000209
     7  H    0.026337
     8  H    0.026337
     9  H    0.029361
    10  H    0.029361
 Sum of Mulliken charges =  -0.00000

 Dipole moment (field-independent basis, Debye):
    X=             -0.9103    Y=             -0.3207    Z=              0.0000  Tot=              0.9651
 Quadrupole moment (field-independent basis, Debye-Ang):
   XX=            -21.1701   YY=            -21.6526   ZZ=            -20.0351
   XY=             -2.1701   XZ=              0.0000   YZ=             -0.0000

  Exact polarizability:  33.238   0.388  35.440  -0.000   0.000  40.795
 Approx polarizability:  45.476   0.093  48.149   0.000   0.000  48.359

                      1                      2                      3
                     A"                     A'                     A'
 Frequencies --    231.9292               258.2479               381.5419
 Red. masses --      1.0324                 1.2040                 2.1684
 Frc consts  --      0.0327                 0.0473                 0.1860
 IR Inten    --      0.0940                 2.5782                 6.4231

                      4                      5                      6
                     A'                     A'                     A"
 Frequencies --    756.9658               938.7365              1035.7930
 Red. masses --      1.2834                 2.3227                 1.1904
 Frc consts  --      0.4333                 1.2059                 0.7524
 IR Inten    --    118.0420                 4.3172                 8.1319

                      7                      8                      9
                     A"                     A"                     A'
 Frequencies --   1101.9310              1169.1986              1185.2929
 Red. masses --      1.3171                 3.5560                 1.4632
 Frc consts  --      0.9423                 2.8641                 1.2112
 IR Inten    --      0.0001                32.5385                 8.2414

                     10                     11                     12
                     A'                     A"                     A'
 Frequencies --   1266.7406              1444.0459              1469.1080
 Red. masses --      1.7177                 1.1527                 1.1764
 Frc consts  --      1.6240                 1.4162                 1.4959
 IR Inten    --      0.1184                 2.0260                 1.1659

                     13                     14                     15
                     A"                     A"                     A'
 Frequencies --   1475.0597              1486.4400              1493.2922
 Red. masses --      1.1367                 1.0843                 1.0628
 Frc consts  --      1.4572                 1.4115                 1.3964
 IR Inten    --      5.7619                 2.4130                10.5395

                     16                     17                     18
                     A'                     A"                     A"
 Frequencies --   1516.3190              1516.6637              2926.2863
 Red. masses --      1.0405                 1.0683                 1.0612
 Frc consts  --      1.4095                 1.4479                 5.3539
 IR Inten    --      2.7955                13.1658                49.8604

                     19                     20                     21
                     A'                     A'                     A"
 Frequencies --   2930.1621              3046.5092              3047.0479
 Red. masses --      1.0626                 1.0704                 1.0732
 Frc consts  --      5.3753                 5.8536                 5.8708
 IR Inten    --    166.8315                47.9442                24.0365

                     22                     23                     24
                     A"                     A'                     A'
 Frequencies --   3095.1859              3095.5792              3531.2429
 Red. masses --      1.1005                 1.1001                 1.0743
 Frc consts  --      6.2120                 6.2113                 7.8930
 IR Inten    --     26.4104                32.9963                 0.2895

 - Thermochemistry -
 -------------------
 Temperature   298.150 Kelvin.  Pressure   1.00000 Atm.
 Atom     1 has atomic number  7 and mass  14.00307

 Molecular mass:    45.05785 amu.
 Principal axes and moments of inertia in atomic units:
                           1         2         3
     Eigenvalues --    51.57804 194.44121 219.94988
           X            0.00000  -0.12467   0.99220
           Y            0.00000   0.99220   0.12467
           Z            1.00000  -0.00000  -0.00000
 This molecule is an asymmetric top.
 Rotational symmetry number  1.
 Rotational temperatures (Kelvin)      1.67928     0.44545     0.39379
 Rotational constants (GHZ):          34.99050     9.28168     8.20524
 Zero-point vibrational energy     241641.6 (Joules/Mol)
                                   57.75373 (Kcal/Mol)
 Warning -- explicit consideration of   3 degrees of freedom as
           vibrations may cause significant error
 Vibrational temperatures:    333.69   371.56   548.95  1089.10  1350.63
          (Kelvin)           1490.28  1585.43  1682.22  1705.37  1822.56
                             2077.66  2113.72  2122.28  2138.66  2148.51
                             2181.64  2182.14  4210.27  4215.85  4383.25
                             4384.02  4453.28  4453.85  5080.67

 Zero-point correction=                           0.092036 (Hartree/Particle)
 Thermal correction to Energy=                    0.096466
 Thermal correction to Enthalpy=                  0.097410
 Thermal correction to Gibbs Free Energy=         0.066552
 Sum of electronic and zero-point Energies=           -135.133428
 Sum of electronic and thermal Energies=              -135.128999
 Sum of electronic and thermal Enthalpies=            -135.128055
 Sum of electronic and thermal Free Energies=         -135.158913

                     E (Thermal)             CV                S
                      KCal/Mol        Cal/Mol-Kelvin    Cal/Mol-Kelvin
 Total                   60.533             13.963             64.946
 Electronic               0.000              0.000              0.000
 Translational            0.889              2.981             37.342
 Rotational               0.889              2.981             22.316
 Vibrational             58.756              8.002              5.289
 Vibration     1          0.653              1.792              1.864
 Vibration     2          0.667              1.749              1.674
 Vibration     3          0.751              1.510              1.033

 Optimization completed.
    -- Stationary point found.
 Normal termination of Gaussian 16 at Fri Feb 25 09:01:14 2022.
