 Gaussian 16, Revision B.01,

 ---------------------------------------
 # b3lyp/gen opt freq CPHF(Grid=OneStep)
 ---------------------------------------

 -----------------------------
 dimethyl ether, B3LYP/pcseg-2
 -----------------------------
 Symbolic Z-matrix:
 Charge =  0 Multiplicity = 1

 SCF Done:  E(RB3LYP) =  -155.096339713     A.U. after   11 cycles
 Optimization completed.
    -- Stationary point found.
 Normal termination of Gaussian 16 at Thu Sep 28 14:33:56 2023.

 ------------------------------------------------------------------
 #N Geom=AllCheck Guess=TCheck SCRF=Check GenChk RB3LYP/ChkBas Freq
 ------------------------------------------------------------------

 Structure from the checkpoint file:  "DME.chk"
 -----------------------------
 dimethyl ether, B3LYP/pcseg-2
 -----------------------------
 Charge =  0 Multiplicity = 1

 SCF Done:  E(RB3LYP) =  -155.096339713     A.U. after    1 cycles

  Exact polarizability:  29.805  -0.000  36.546  -0.000  -0.000  29.877
 Approx polarizability:  39.253  -0.000  42.857  -0.000   0.000  41.015

                      1                      2                      3
                     A2                     B1                     A1
 Frequencies --    210.1938               240.4392               410.9525
 Red. masses --      1.0314                 1.3051                 2.2678
 Frc consts  --      0.0268                 0.0445                 0.2257
 IR Inten    --      0.0000                 5.8721                 2.4261

                      4                      5                      6
                     A1                     B2                     A2
 Frequencies --    939.2619              1118.2327              1162.1601
 Red. masses --      4.2153                 1.8692                 1.2169
 Frc consts  --      2.1911                 1.3771                 0.9684
 IR Inten    --     38.8792                47.8347                 0.0000

                      7                      8                      9
                     B1                     B2                     A1
 Frequencies --   1192.7062              1195.5578              1266.9972
 Red. masses --      1.3565                 2.7145                 1.5802
 Frc consts  --      1.1369                 2.2860                 1.4945
 IR Inten    --      8.0096                97.1741                 5.8143

                     10                     11                     12
                     B2                     A2                     A1
 Frequencies --   1461.0588              1481.3789              1488.1301
 Red. masses --      1.1190                 1.0440                 1.1470
 Frc consts  --      1.4074                 1.3498                 1.4966
 IR Inten    --      3.0805                 0.0000                 0.2316

                     13                     14                     15
                     B1                     B2                     A1
 Frequencies --   1490.0663              1496.1928              1513.5444
 Red. masses --      1.0483                 1.0499                 1.0685
 Frc consts  --      1.3714                 1.3847                 1.4422
 IR Inten    --     12.1793                12.4930                 2.6629

                     16                     17                     18
                     B2                     A1                     B1
 Frequencies --   2964.3012              2976.0702              3008.2848
 Red. masses --      1.0360                 1.0377                 1.1025
 Frc consts  --      5.3635                 5.4151                 5.8783
 IR Inten    --     56.9033                67.6201               136.9311

                     19                     20                     21
                     A2                     B2                     A1
 Frequencies --   3013.3576              3114.5469              3115.8322
 Red. masses --      1.1053                 1.0950                 1.0959
 Frc consts  --      5.9132                 6.2583                 6.2685
 IR Inten    --      0.0000                31.5126                21.1999

 - Thermochemistry -
 -------------------
 Temperature   298.150 Kelvin.  Pressure   1.00000 Atm.
 Atom     1 has atomic number  8 and mass  15.99491

 Molecular mass:    46.04186 amu.
 Principal axes and moments of inertia in atomic units:
                           1         2         3
     Eigenvalues --    45.60480 180.63127 203.43193
           X            0.00000   0.00000   1.00000
           Y            1.00000   0.00000  -0.00000
           Z            0.00000   1.00000   0.00000
 This molecule is an asymmetric top.
 Rotational symmetry number  2.
 Rotational temperatures (Kelvin)      1.89923     0.47951     0.42576
 Rotational constants (GHZ):          39.57349     9.99130     8.87147
 Zero-point vibrational energy     208504.7 (Joules/Mol)
                                   49.83382 (Kcal/Mol)
 Warning -- explicit consideration of   3 degrees of freedom as
           vibrations may cause significant error
 Vibrational temperatures:    302.42   345.94   591.27  1351.39  1608.89
          (Kelvin)           1672.09  1716.04  1720.14  1822.93  2102.14
                             2131.37  2141.09  2143.87  2152.69  2177.65
                             4264.97  4281.90  4328.25  4335.55  4481.14
                             4482.99

 Zero-point correction=                           0.079415 (Hartree/Particle)
 Thermal correction to Energy=                    0.083759
 Thermal correction to Enthalpy=                  0.084703
 Thermal correction to Gibbs Free Energy=         0.054650
 Sum of electronic and zero-point Energies=           -155.016924
 Sum of electronic and thermal Energies=              -155.012581
 Sum of electronic and thermal Enthalpies=            -155.011637
 Sum of electronic and thermal Free Energies=         -155.041690

                     E (Thermal)             CV                S
                      KCal/Mol        Cal/Mol-Kelvin    Cal/Mol-Kelvin
 Total                   52.560             13.008             63.253
 Electronic               0.000              0.000              0.000
 Translational            0.889              2.981             37.406
 Rotational               0.889              2.981             20.666
 Vibrational             50.782              7.047              5.181
 Vibration     1          0.642              1.825              2.042
 Vibration     2          0.658              1.779              1.800
 Vibration     3          0.775              1.446              0.923

 Optimization completed.
    -- Stationary point found.
 Normal termination of Gaussian 16 at Thu Sep 28 14:35:53 2023.
 Gaussian 16:  ES64L-G16RevB.01 20-Dec-2017

 ---------------------------------
 # rohf/gen geom=check guess=check
 ---------------------------------

 --------------------------------
 dimethyl ether, ROHF/cc-pVTZ-F12
 --------------------------------
 Structure from the checkpoint file:  "DME.chk"
 Charge =  0 Multiplicity = 1

                         Standard orientation:
 ---------------------------------------------------------------------
 Center     Atomic      Atomic             Coordinates (Angstroms)
 Number     Number       Type             X           Y           Z
 ---------------------------------------------------------------------
      1          8           0       -0.000000    0.000000    0.586674
      2          6           0        0.000000    1.173542   -0.194662
      3          6           0       -0.000000   -1.173542   -0.194662
      4          1           0        0.000000    2.020190    0.488352
      5          1           0       -0.000000   -2.020190    0.488352
      6          1           0        0.889960    1.231111   -0.833537
      7          1           0       -0.889960    1.231111   -0.833537
      8          1           0       -0.889960   -1.231111   -0.833537
      9          1           0        0.889960   -1.231111   -0.833537
 ---------------------------------------------------------------------

 SCF Done:  E(ROHF) =  -154.137393321     A.U. after   10 cycles

 The electronic state is 1-A1.
 Alpha  occ. eigenvalues --  -20.55369 -11.26819 -11.26817  -1.37208  -0.96918
 Alpha  occ. eigenvalues --   -0.87362  -0.65857  -0.65007  -0.64037  -0.55059
 Alpha  occ. eigenvalues --   -0.52764  -0.48072  -0.42463
 Alpha virt. eigenvalues --    0.05101   0.05444   0.06683   0.07158   0.08958
 Alpha virt. eigenvalues --    0.09607   0.09723   0.15495   0.17602   0.19308
 Alpha virt. eigenvalues --    0.21140   0.22090   0.23930   0.24606   0.25368

 Mulliken charges and spin densities:
               1          2
     1  O   -0.436452   0.000000
     2  C   -0.052743   0.000000
     3  C   -0.052743   0.000000
     4  H    0.122496   0.000000
     5  H    0.122496   0.000000
     6  H    0.074237   0.000000
     7  H    0.074237   0.000000
     8  H    0.074237   0.000000
     9  H    0.074237   0.000000
 Sum of Mulliken charges =   0.00000   0.00000

 Dipole moment (field-independent basis, Debye):
    X=              0.0000    Y=              0.0000    Z=             -1.4492  Tot=              1.4492
 Quadrupole moment (field-independent basis, Debye-Ang):
   XX=            -20.0678   YY=            -17.3236   ZZ=            -21.3327
   XY=              0.0000   XZ=             -0.0000   YZ=              0.0000

 Normal termination of Gaussian 16 at Thu Sep 28 14:36:15 2023.
