 Gaussian 16, Revision B.01,
 Gaussian 16:  ES64L-G16RevB.01 20-Dec-2017

 --------------------
 # b3lyp/gen opt freq
 --------------------

 -----------------------------
 dimethyl ether, B3LYP/pcseg-2
 -----------------------------
 Symbolic Z-matrix:
 Charge =  0 Multiplicity = 1

 SCF Done:  E(RB3LYP) =  -155.094766923     A.U. after   11 cycles
 SCF Done:  E(RB3LYP) =  -155.096180110     A.U. after   10 cycles
 SCF Done:  E(RB3LYP) =  -155.096326416     A.U. after    7 cycles
 SCF Done:  E(RB3LYP) =  -155.096339712     A.U. after    7 cycles
 Optimization completed.
    -- Stationary point found.
 Normal termination of Gaussian 16 at Tue Feb  8 10:22:05 2022.

 ------------------------------------------------------------------
 #N Geom=AllCheck Guess=TCheck SCRF=Check GenChk RB3LYP/ChkBas Freq
 ------------------------------------------------------------------

 Structure from the checkpoint file:  "/wrk/irikura/Gau-510.chk"
 -----------------------------
 dimethyl ether, B3LYP/pcseg-2
 -----------------------------
 Charge =  0 Multiplicity = 1

                         Standard orientation:
 ---------------------------------------------------------------------
 Center     Atomic      Atomic             Coordinates (Angstroms)
 Number     Number       Type             X           Y           Z
 ---------------------------------------------------------------------
      1          8           0       -0.000000   -0.000000    0.586674
      2          6           0        0.000000    1.173542   -0.194662
      3          6           0       -0.000000   -1.173542   -0.194662
      4          1           0        0.000000    2.020190    0.488352
      5          1           0       -0.000000   -2.020190    0.488352
      6          1           0        0.889960    1.231111   -0.833537
      7          1           0       -0.889960    1.231111   -0.833537
      8          1           0       -0.889960   -1.231111   -0.833537
      9          1           0        0.889960   -1.231111   -0.833537
 ---------------------------------------------------------------------

 SCF Done:  E(RB3LYP) =  -155.096339712     A.U. after    1 cycles

 The electronic state is 1-A1.
 Alpha  occ. eigenvalues --  -19.12658 -10.21351 -10.21351  -1.03669  -0.72523
 Alpha  occ. eigenvalues --   -0.64143  -0.48209  -0.47598  -0.47532  -0.40062
 Alpha  occ. eigenvalues --   -0.38268  -0.32590  -0.26506
 Alpha virt. eigenvalues --    0.01463   0.04418   0.06663   0.06804   0.07053
 Alpha virt. eigenvalues --    0.09394   0.10996   0.16008   0.16103   0.17252
 Alpha virt. eigenvalues --    0.19385   0.27115   0.28814   0.29883   0.32545

 Mulliken charges:
               1
     1  O   -0.434111
     2  C    0.160744
     3  C    0.160744
     4  H    0.040765
     5  H    0.040765
     6  H    0.007773
     7  H    0.007773
     8  H    0.007773
     9  H    0.007773
 Sum of Mulliken charges =   0.00000

 Dipole moment (field-independent basis, Debye):
    X=              0.0000    Y=             -0.0000    Z=             -1.2922  Tot=              1.2922
 Quadrupole moment (field-independent basis, Debye-Ang):
   XX=            -20.4057   YY=            -17.5116   ZZ=            -21.5571
   XY=             -0.0000   XZ=             -0.0000   YZ=              0.0000

  Exact polarizability:  29.805  -0.000  36.546  -0.000  -0.000  29.877
 Approx polarizability:  39.253  -0.000  42.857  -0.000   0.000  41.015

                      1                      2                      3
                     A2                     B1                     A1
 Frequencies --    210.1869               240.4358               410.9534
 Red. masses --      1.0314                 1.3051                 2.2678
 Frc consts  --      0.0268                 0.0445                 0.2257
 IR Inten    --      0.0000                 5.8723                 2.4261

                      4                      5                      6
                     A1                     B2                     A2
 Frequencies --    939.2638              1118.2311              1162.1590
 Red. masses --      4.2153                 1.8692                 1.2169
 Frc consts  --      2.1911                 1.3771                 0.9684
 IR Inten    --     38.8782                47.8358                 0.0000

                      7                      8                      9
                     B1                     B2                     A1
 Frequencies --   1192.7064              1195.5577              1266.9958
 Red. masses --      1.3565                 2.7147                 1.5802
 Frc consts  --      1.1369                 2.2862                 1.4945
 IR Inten    --      8.0095                97.1725                 5.8138

                     10                     11                     12
                     B2                     A2                     A1
 Frequencies --   1461.0497              1481.3630              1488.1305
 Red. masses --      1.1190                 1.0440                 1.1470
 Frc consts  --      1.4074                 1.3498                 1.4966
 IR Inten    --      3.0763                 0.0000                 0.2318

                     13                     14                     15
                     B1                     B2                     A1
 Frequencies --   1490.0651              1496.1886              1513.5420
 Red. masses --      1.0483                 1.0498                 1.0685
 Frc consts  --      1.3714                 1.3847                 1.4422
 IR Inten    --     12.1793                12.4952                 2.6634

                     16                     17                     18
                     B2                     A1                     B1
 Frequencies --   2964.2845              2976.0725              3008.2894
 Red. masses --      1.0360                 1.0377                 1.1025
 Frc consts  --      5.3635                 5.4151                 5.8783
 IR Inten    --     56.8687                67.6193               136.9352

                     19                     20                     21
                     A2                     B2                     A1
 Frequencies --   3013.3369              3114.5417              3115.8297
 Red. masses --      1.1053                 1.0950                 1.0959
 Frc consts  --      5.9132                 6.2583                 6.2685
 IR Inten    --      0.0000                31.5224                21.2007

 - Thermochemistry -
 -------------------
 Temperature   298.150 Kelvin.  Pressure   1.00000 Atm.
 Atom     1 has atomic number  8 and mass  15.99491

 Molecular mass:    46.04186 amu.
 Principal axes and moments of inertia in atomic units:
                           1         2         3
     Eigenvalues --    45.60480 180.63117 203.43183
           X            0.00000   0.00000   1.00000
           Y            1.00000   0.00000  -0.00000
           Z           -0.00000   1.00000  -0.00000
 This molecule is an asymmetric top.
 Rotational symmetry number  2.
 Rotational temperatures (Kelvin)      1.89923     0.47951     0.42576
 Rotational constants (GHZ):          39.57349     9.99131     8.87148
 Zero-point vibrational energy     208504.2 (Joules/Mol)
                                   49.83370 (Kcal/Mol)
 Warning -- explicit consideration of   3 degrees of freedom as
           vibrations may cause significant error
 Vibrational temperatures:    302.41   345.93   591.27  1351.39  1608.89
          (Kelvin)           1672.09  1716.04  1720.14  1822.92  2102.12
                             2131.35  2141.09  2143.87  2152.68  2177.65
                             4264.94  4281.90  4328.26  4335.52  4481.13
                             4482.98

 Zero-point correction=                           0.079415 (Hartree/Particle)
 Thermal correction to Energy=                    0.083759
 Thermal correction to Enthalpy=                  0.084703
 Thermal correction to Gibbs Free Energy=         0.054650
 Sum of electronic and zero-point Energies=           -155.016925
 Sum of electronic and thermal Energies=              -155.012581
 Sum of electronic and thermal Enthalpies=            -155.011637
 Sum of electronic and thermal Free Energies=         -155.041690

                     E (Thermal)             CV                S
                      KCal/Mol        Cal/Mol-Kelvin    Cal/Mol-Kelvin
 Total                   52.559             13.008             63.253
 Electronic               0.000              0.000              0.000
 Translational            0.889              2.981             37.406
 Rotational               0.889              2.981             20.666
 Vibrational             50.782              7.047              5.181
 Vibration     1          0.642              1.825              2.042
 Vibration     2          0.658              1.779              1.800
 Vibration     3          0.775              1.446              0.923

 Optimization completed.
    -- Stationary point found.
 Normal termination of Gaussian 16 at Tue Feb  8 10:23:11 2022.
