 Gaussian 16, Revision B.01,

 ---------------------------------------
 # b3lyp/gen opt freq CPHF(Grid=OneStep)
 ---------------------------------------

 --------------------------------
 dimethylformamide, B3LYP/pcseg-2
 --------------------------------
 Symbolic Z-matrix:
 Charge =  0 Multiplicity = 1

 SCF Done:  E(RB3LYP) =  -248.618694176     A.U. after   13 cycles
 Optimization completed.
    -- Stationary point found.
 Normal termination of Gaussian 16 at Sat Sep 30 10:15:34 2023.

 ------------------------------------------------------------------
 #N Geom=AllCheck Guess=TCheck SCRF=Check GenChk RB3LYP/ChkBas Freq
 ------------------------------------------------------------------

 Structure from the checkpoint file:  "DMF.chk"
 --------------------------------
 dimethylformamide, B3LYP/pcseg-2
 --------------------------------
 Charge =  0 Multiplicity = 1

 SCF Done:  E(RB3LYP) =  -248.618694176     A.U. after    1 cycles

  Exact polarizability:  51.477  -1.275  61.220   0.000  -0.000  37.334
 Approx polarizability:  66.837  -1.172  88.638   0.000  -0.000  52.986

                      1                      2                      3
                     A"                     A"                     A"
 Frequencies --    115.2151               168.8584               230.9855
 Red. masses --      1.3949                 1.1897                 1.5466
 Frc consts  --      0.0109                 0.0200                 0.0486
 IR Inten    --      0.2706                 0.0350                 0.9429

                      4                      5                      6
                     A'                     A"                     A'
 Frequencies --    319.2125               337.9768               394.0350
 Red. masses --      3.8605                 2.3260                 2.3773
 Frc consts  --      0.2318                 0.1565                 0.2175
 IR Inten    --     11.7566                17.3402                 1.6858

                      7                      8                      9
                     A'                     A'                     A"
 Frequencies --    660.0216               871.1583              1020.3289
 Red. masses --      5.0982                 3.8618                 1.6150
 Frc consts  --      1.3085                 1.7268                 0.9906
 IR Inten    --      7.2252                 1.8788                 0.0200

                     10                     11                     12
                     A'                     A'                     A"
 Frequencies --   1081.1892              1096.0144              1129.3162
 Red. masses --      1.3826                 1.7731                 1.2231
 Frc consts  --      0.9523                 1.2549                 0.9191
 IR Inten    --      5.7579               118.0957                 0.1088

                     13                     14                     15
                     A"                     A'                     A'
 Frequencies --   1177.7038              1275.5057              1412.6711
 Red. masses --      1.3725                 4.4738                 1.8253
 Frc consts  --      1.1216                 4.2883                 2.1462
 IR Inten    --      2.6950                33.9684                87.0730

                     16                     17                     18
                     A'                     A'                     A'
 Frequencies --   1431.5365              1441.0612              1470.7866
 Red. masses --      1.5216                 1.1812                 1.1931
 Frc consts  --      1.8372                 1.4452                 1.5206
 IR Inten    --     13.3627                 5.3806                 8.6153

                     19                     20                     21
                     A"                     A"                     A'
 Frequencies --   1478.7285              1499.8617              1504.7898
 Red. masses --      1.0403                 1.0421                 1.0683
 Frc consts  --      1.3403                 1.3812                 1.4253
 IR Inten    --      3.6635                15.5486                10.8524

                     22                     23                     24
                     A'                     A'                     A'
 Frequencies --   1540.1775              1754.1199              2944.0489
 Red. masses --      1.2061                 8.0856                 1.0832
 Frc consts  --      1.6857                14.6582                 5.5316
 IR Inten    --     21.9165               490.0292                86.9104

                     25                     26                     27
                     A'                     A'                     A"
 Frequencies --   3010.2877              3019.2819              3052.8846
 Red. masses --      1.0362                 1.0378                 1.1041
 Frc consts  --      5.5321                 5.5741                 6.0626
 IR Inten    --     47.7765                60.0909                46.4243

                     28                     29                     30
                     A"                     A'                     A'
 Frequencies --   3063.0836              3115.1113              3151.2963
 Red. masses --      1.1042                 1.0981                 1.0970
 Frc consts  --      6.1037                 6.2782                 6.4186
 IR Inten    --     18.8762                15.2252                 1.1739

 - Thermochemistry -
 -------------------
 Temperature   298.150 Kelvin.  Pressure   1.00000 Atm.
 Atom     1 has atomic number  6 and mass  12.00000

 Molecular mass:    73.05276 amu.
 Principal axes and moments of inertia in atomic units:
                           1         2         3
     Eigenvalues --   201.97207 429.99720 609.38187
           X           -0.07225   0.99739   0.00000
           Y            0.99739   0.07225   0.00000
           Z           -0.00000   0.00000   1.00000
 This molecule is an asymmetric top.
 Rotational symmetry number  1.
 Rotational temperatures (Kelvin)      0.42884     0.20143     0.14213
 Rotational constants (GHZ):           8.93560     4.19710     2.96159
 Zero-point vibrational energy     267767.6 (Joules/Mol)
                                   63.99799 (Kcal/Mol)
 Warning -- explicit consideration of   6 degrees of freedom as
           vibrations may cause significant error
 Vibrational temperatures:    165.77   242.95   332.34   459.28   486.27
          (Kelvin)            566.93   949.62  1253.40  1468.03  1555.59
                             1576.92  1624.83  1694.45  1835.17  2032.52
                             2059.66  2073.37  2116.13  2127.56  2157.97
                             2165.06  2215.97  2523.79  4235.83  4331.13
                             4344.07  4392.42  4407.09  4481.95  4534.01

 Zero-point correction=                           0.101987 (Hartree/Particle)
 Thermal correction to Energy=                    0.108113
 Thermal correction to Enthalpy=                  0.109057
 Thermal correction to Gibbs Free Energy=         0.072829
 Sum of electronic and zero-point Energies=           -248.516707
 Sum of electronic and thermal Energies=              -248.510581
 Sum of electronic and thermal Enthalpies=            -248.509637
 Sum of electronic and thermal Free Energies=         -248.545865

                     E (Thermal)             CV                S
                      KCal/Mol        Cal/Mol-Kelvin    Cal/Mol-Kelvin
 Total                   67.842             20.009             76.248
 Electronic               0.000              0.000              0.000
 Translational            0.889              2.981             38.782
 Rotational               0.889              2.981             25.473
 Vibrational             66.064             14.047             11.992
 Vibration     1          0.608              1.937              3.179
 Vibration     2          0.625              1.881              2.448
 Vibration     3          0.653              1.794              1.871
 Vibration     4          0.705              1.637              1.314
 Vibration     5          0.718              1.600              1.222
 Vibration     6          0.761              1.483              0.985

 Optimization completed.
    -- Stationary point found.
 Normal termination of Gaussian 16 at Sat Sep 30 10:25:01 2023.
 Gaussian 16:  ES64L-G16RevB.01 20-Dec-2017

 ---------------------------------
 # rohf/gen geom=check guess=check
 ---------------------------------

 -----------------------------------
 dimethylformamide, ROHF/cc-pVTZ-F12
 -----------------------------------
 Structure from the checkpoint file:  "DMF.chk"
 Charge =  0 Multiplicity = 1

                         Standard orientation:
 ---------------------------------------------------------------------
 Center     Atomic      Atomic             Coordinates (Angstroms)
 Number     Number       Type             X           Y           Z
 ---------------------------------------------------------------------
      1          6           0        0.690401   -0.826307    0.000000
      2          8           0        0.203667   -1.938646    0.000000
      3          7           0        0.000000    0.344252    0.000000
      4          6           0       -1.450560    0.343849    0.000000
      5          6           0        0.674206    1.624311    0.000000
      6          1           0        1.781365   -0.661056    0.000000
      7          1           0       -1.793805   -0.686105    0.000000
      8          1           0       -1.835061    0.854156    0.886219
      9          1           0       -1.835061    0.854156   -0.886219
     10          1           0        1.751812    1.471379    0.000000
     11          1           0        0.408565    2.207879   -0.885222
     12          1           0        0.408565    2.207879    0.885222
 ---------------------------------------------------------------------

 SCF Done:  E(ROHF) =  -247.099495147     A.U. after   12 cycles

 The electronic state is 1-A'.
 Alpha  occ. eigenvalues --  -20.51738 -15.59242 -11.34397 -11.27527 -11.25901
 Alpha  occ. eigenvalues --   -1.37977  -1.25476  -0.98726  -0.95029  -0.78233
 Alpha  occ. eigenvalues --   -0.70485  -0.66009  -0.65558  -0.58517  -0.56923
 Alpha  occ. eigenvalues --   -0.56900  -0.54187  -0.53263  -0.42861  -0.37807
 Alpha virt. eigenvalues --    0.03899   0.04746   0.05562   0.05799   0.07647
 Alpha virt. eigenvalues --    0.08284   0.09118   0.09216   0.09542   0.11806
 Alpha virt. eigenvalues --    0.15094   0.16884   0.16894   0.18353   0.19743

 Mulliken charges and spin densities:
               1          2
     1  C    0.504021   0.000000
     2  O   -0.655464   0.000000
     3  N   -0.296364   0.000000
     4  C   -0.189458   0.000000
     5  C   -0.149773   0.000000
     6  H    0.110496   0.000000
     7  H    0.173098   0.000000
     8  H    0.097411   0.000000
     9  H    0.097411   0.000000
    10  H    0.109499   0.000000
    11  H    0.099561   0.000000
    12  H    0.099561   0.000000
 Sum of Mulliken charges =  -0.00000   0.00000

 Dipole moment (field-independent basis, Debye):
    X=              0.4640    Y=              4.3147    Z=              0.0000  Tot=              4.3396
 Quadrupole moment (field-independent basis, Debye-Ang):
   XX=            -27.3254   YY=            -38.2975   ZZ=            -31.1773
   XY=              0.4680   XZ=             -0.0000   YZ=             -0.0000

 Normal termination of Gaussian 16 at Sat Sep 30 10:28:25 2023.
