 Gaussian 16, Revision B.01,
 Gaussian 16:  ES64L-G16RevB.01 20-Dec-2017

 --------------------
 # b3lyp/gen opt freq
 --------------------

 --------------------------------
 dimethylformamide, B3LYP/pcseg-2
 --------------------------------
 Symbolic Z-matrix:
 Charge =  0 Multiplicity = 1

 SCF Done:  E(RB3LYP) =  -248.618603531     A.U. after   13 cycles
 SCF Done:  E(RB3LYP) =  -248.618690413     A.U. after    8 cycles
 SCF Done:  E(RB3LYP) =  -248.618694176     A.U. after    7 cycles
 Optimization completed.
    -- Stationary point found.
 Normal termination of Gaussian 16 at Sun Feb 27 16:56:05 2022.

 ------------------------------------------------------------------
 #N Geom=AllCheck Guess=TCheck SCRF=Check GenChk RB3LYP/ChkBas Freq
 ------------------------------------------------------------------

 Structure from the checkpoint file:  "/wrk/irikura/Gau-1178.chk"
 --------------------------------
 dimethylformamide, B3LYP/pcseg-2
 --------------------------------
 Charge =  0 Multiplicity = 1

                         Standard orientation:
 ---------------------------------------------------------------------
 Center     Atomic      Atomic             Coordinates (Angstroms)
 Number     Number       Type             X           Y           Z
 ---------------------------------------------------------------------
      1          6           0        0.690401   -0.826307    0.000000
      2          8           0        0.203667   -1.938646    0.000000
      3          7           0        0.000000    0.344252    0.000000
      4          6           0       -1.450560    0.343849    0.000000
      5          6           0        0.674206    1.624311    0.000000
      6          1           0        1.781365   -0.661056    0.000000
      7          1           0       -1.793805   -0.686105    0.000000
      8          1           0       -1.835061    0.854156    0.886219
      9          1           0       -1.835061    0.854156   -0.886219
     10          1           0        1.751812    1.471379    0.000000
     11          1           0        0.408565    2.207879   -0.885222
     12          1           0        0.408565    2.207879    0.885222
 ---------------------------------------------------------------------

 SCF Done:  E(RB3LYP) =  -248.618694176     A.U. after    1 cycles

 The electronic state is 1-A'.
 Alpha  occ. eigenvalues --  -19.09036 -14.35446 -10.26823 -10.22057 -10.20726
 Alpha  occ. eigenvalues --   -1.03994  -0.94887  -0.74208  -0.71131  -0.57800
 Alpha  occ. eigenvalues --   -0.52562  -0.48940  -0.47580  -0.42197  -0.41938
 Alpha  occ. eigenvalues --   -0.41235  -0.39647  -0.38615  -0.26484  -0.25562
 Alpha virt. eigenvalues --    0.00229   0.00822   0.03452   0.04693   0.06173
 Alpha virt. eigenvalues --    0.06767   0.09811   0.09845   0.10473   0.12399
 Alpha virt. eigenvalues --    0.13370   0.14136   0.17677   0.17750   0.22382

 Mulliken charges:
               1
     1  C    0.391908
     2  O   -0.466113
     3  N   -0.290173
     4  C    0.070033
     5  C    0.093174
     6  H   -0.021943
     7  H    0.071931
     8  H    0.028863
     9  H    0.028863
    10  H    0.023269
    11  H    0.035094
    12  H    0.035094
 Sum of Mulliken charges =  -0.00000

 Dipole moment (field-independent basis, Debye):
    X=              0.1802    Y=              4.1347    Z=             -0.0000  Tot=              4.1386
 Quadrupole moment (field-independent basis, Debye-Ang):
   XX=            -27.9754   YY=            -37.7895   ZZ=            -31.3240
   XY=              0.5655   XZ=              0.0000   YZ=              0.0000

  Exact polarizability:  51.477  -1.275  61.221   0.000  -0.000  37.334
 Approx polarizability:  66.837  -1.172  88.638  -0.000   0.000  52.987

                      1                      2                      3
                     A"                     A"                     A"
 Frequencies --    115.2162               168.8644               230.9879
 Red. masses --      1.3948                 1.1898                 1.5465
 Frc consts  --      0.0109                 0.0200                 0.0486
 IR Inten    --      0.2705                 0.0350                 0.9433

                      4                      5                      6
                     A'                     A"                     A'
 Frequencies --    319.2123               337.9761               394.0361
 Red. masses --      3.8606                 2.3260                 2.3773
 Frc consts  --      0.2318                 0.1565                 0.2175
 IR Inten    --     11.7565                17.3399                 1.6860

                      7                      8                      9
                     A'                     A'                     A"
 Frequencies --    660.0206               871.1567              1020.3297
 Red. masses --      5.0982                 3.8619                 1.6150
 Frc consts  --      1.3085                 1.7268                 0.9906
 IR Inten    --      7.2239                 1.8786                 0.0200

                     10                     11                     12
                     A'                     A'                     A"
 Frequencies --   1081.1839              1096.0162              1129.3167
 Red. masses --      1.3826                 1.7731                 1.2231
 Frc consts  --      0.9523                 1.2549                 0.9191
 IR Inten    --      5.7581               118.0953                 0.1088

                     13                     14                     15
                     A"                     A'                     A'
 Frequencies --   1177.7037              1275.5005              1412.6716
 Red. masses --      1.3725                 4.4734                 1.8250
 Frc consts  --      1.1216                 4.2880                 2.1459
 IR Inten    --      2.6952                33.9707                87.0656

                     16                     17                     18
                     A'                     A'                     A'
 Frequencies --   1431.5263              1441.0634              1470.7870
 Red. masses --      1.5220                 1.1811                 1.1931
 Frc consts  --      1.8376                 1.4451                 1.5206
 IR Inten    --     13.3700                 5.3787                 8.6150

                     19                     20                     21
                     A"                     A"                     A'
 Frequencies --   1478.7273              1499.8656              1504.7949
 Red. masses --      1.0403                 1.0421                 1.0684
 Frc consts  --      1.3403                 1.3812                 1.4253
 IR Inten    --      3.6656                15.5460                10.8507

                     22                     23                     24
                     A'                     A'                     A'
 Frequencies --   1540.1761              1754.1189              2944.0404
 Red. masses --      1.2061                 8.0856                 1.0832
 Frc consts  --      1.6857                14.6582                 5.5316
 IR Inten    --     21.9144               490.0395                86.9053

                     25                     26                     27
                     A'                     A'                     A"
 Frequencies --   3010.2868              3019.2856              3052.8784
 Red. masses --      1.0362                 1.0378                 1.1041
 Frc consts  --      5.5321                 5.5741                 6.0626
 IR Inten    --     47.8098                60.0681                46.4173

                     28                     29                     30
                     A"                     A'                     A'
 Frequencies --   3063.0903              3115.1037              3151.2934
 Red. masses --      1.1042                 1.0981                 1.0970
 Frc consts  --      6.1038                 6.2782                 6.4185
 IR Inten    --     18.8746                15.2331                 1.1740

 - Thermochemistry -
 -------------------
 Temperature   298.150 Kelvin.  Pressure   1.00000 Atm.
 Atom     1 has atomic number  6 and mass  12.00000

 Molecular mass:    73.05276 amu.
 Principal axes and moments of inertia in atomic units:
                           1         2         3
     Eigenvalues --   201.97203 429.99713 609.38174
           X           -0.07225   0.99739   0.00000
           Y            0.99739   0.07225   0.00000
           Z           -0.00000  -0.00000   1.00000
 This molecule is an asymmetric top.
 Rotational symmetry number  1.
 Rotational temperatures (Kelvin)      0.42884     0.20143     0.14213
 Rotational constants (GHZ):           8.93560     4.19710     2.96159
 Zero-point vibrational energy     267767.5 (Joules/Mol)
                                   63.99797 (Kcal/Mol)
 Warning -- explicit consideration of   6 degrees of freedom as
           vibrations may cause significant error
 Vibrational temperatures:    165.77   242.96   332.34   459.28   486.27
          (Kelvin)            566.93   949.62  1253.40  1468.03  1555.58
                             1576.92  1624.83  1694.45  1835.16  2032.52
                             2059.65  2073.37  2116.13  2127.56  2157.97
                             2165.06  2215.97  2523.79  4235.82  4331.13
                             4344.08  4392.41  4407.10  4481.94  4534.01

 Zero-point correction=                           0.101987 (Hartree/Particle)
 Thermal correction to Energy=                    0.108113
 Thermal correction to Enthalpy=                  0.109057
 Thermal correction to Gibbs Free Energy=         0.072829
 Sum of electronic and zero-point Energies=           -248.516707
 Sum of electronic and thermal Energies=              -248.510581
 Sum of electronic and thermal Enthalpies=            -248.509637
 Sum of electronic and thermal Free Energies=         -248.545865

                     E (Thermal)             CV                S
                      KCal/Mol        Cal/Mol-Kelvin    Cal/Mol-Kelvin
 Total                   67.842             20.009             76.247
 Electronic               0.000              0.000              0.000
 Translational            0.889              2.981             38.782
 Rotational               0.889              2.981             25.473
 Vibrational             66.064             14.047             11.992
 Vibration     1          0.608              1.937              3.179
 Vibration     2          0.625              1.881              2.448
 Vibration     3          0.653              1.794              1.871
 Vibration     4          0.705              1.637              1.314
 Vibration     5          0.718              1.600              1.222
 Vibration     6          0.761              1.483              0.985

 Optimization completed.
    -- Stationary point found.
 Normal termination of Gaussian 16 at Sun Feb 27 16:59:27 2022.
