 Gaussian 16, Revision B.01,
 Gaussian 16:  ES64L-G16RevB.01 20-Dec-2017

 --------------------
 # b3lyp/gen opt freq
 --------------------

 ------------------------------
 dimethylsulfone, B3LYP/pcseg-2
 ------------------------------
 Symbolic Z-matrix:
 Charge =  0 Multiplicity = 1

 SCF Done:  E(RB3LYP) =  -628.580462210     A.U. after   12 cycles
 SCF Done:  E(RB3LYP) =  -628.581283451     A.U. after   10 cycles
 SCF Done:  E(RB3LYP) =  -628.581383270     A.U. after    8 cycles
 SCF Done:  E(RB3LYP) =  -628.581385388     A.U. after    7 cycles
 Optimization completed.
    -- Stationary point found.
 Normal termination of Gaussian 16 at Sat Feb 26 09:47:15 2022.

 ------------------------------------------------------------------
 #N Geom=AllCheck Guess=TCheck SCRF=Check GenChk RB3LYP/ChkBas Freq
 ------------------------------------------------------------------

 Structure from the checkpoint file:  "/wrk/irikura/Gau-24450.chk"
 ------------------------------
 dimethylsulfone, B3LYP/pcseg-2
 ------------------------------
 Charge =  0 Multiplicity = 1

                         Standard orientation:
 ---------------------------------------------------------------------
 Center     Atomic      Atomic             Coordinates (Angstroms)
 Number     Number       Type             X           Y           Z
 ---------------------------------------------------------------------
      1         16           0        0.000000    0.000000    0.189419
      2          8           0       -1.253562    0.000000    0.911203
      3          8           0        1.253562   -0.000000    0.911203
      4          6           0       -0.000000    1.411271   -0.914253
      5          6           0       -0.000000   -1.411271   -0.914253
      6          1           0       -0.000000    2.288071   -0.270186
      7          1           0       -0.000000   -2.288071   -0.270186
      8          1           0        0.899154    1.396148   -1.524637
      9          1           0       -0.899154    1.396148   -1.524637
     10          1           0       -0.899154   -1.396148   -1.524637
     11          1           0        0.899154   -1.396148   -1.524637
 ---------------------------------------------------------------------

 SCF Done:  E(RB3LYP) =  -628.581385388     A.U. after    1 cycles

 The electronic state is 1-A1.
 Alpha  occ. eigenvalues --  -89.03341 -19.11566 -19.11565 -10.21725 -10.21724
 Alpha  occ. eigenvalues --   -8.09653  -6.05891  -6.05858  -6.05818  -1.11275
 Alpha  occ. eigenvalues --   -1.00774  -0.80421  -0.75612  -0.60532  -0.51316
 Alpha  occ. eigenvalues --   -0.49666  -0.48959  -0.45673  -0.45155  -0.43246
 Alpha  occ. eigenvalues --   -0.42861  -0.34453  -0.33078  -0.31258  -0.30527
 Alpha virt. eigenvalues --   -0.00514   0.03231   0.03368   0.03648   0.05779
 Alpha virt. eigenvalues --    0.06679   0.07892   0.08781   0.09332   0.10000
 Alpha virt. eigenvalues --    0.14759   0.16911   0.17625   0.17649   0.18566

 Mulliken charges:
               1
     1  S    0.877110
     2  O   -0.518583
     3  O   -0.518583
     4  C   -0.098811
     5  C   -0.098811
     6  H    0.068297
     7  H    0.068297
     8  H    0.055271
     9  H    0.055271
    10  H    0.055271
    11  H    0.055271
 Sum of Mulliken charges =  -0.00000

 Dipole moment (field-independent basis, Debye):
    X=             -0.0000    Y=             -0.0000    Z=             -4.6902  Tot=              4.6902
 Quadrupole moment (field-independent basis, Debye-Ang):
   XX=            -43.7150   YY=            -31.9686   ZZ=            -38.8524
   XY=              0.0000   XZ=             -0.0000   YZ=              0.0000

  Exact polarizability:  49.080  -0.000  53.906   0.000  -0.000  49.411
 Approx polarizability:  78.304   0.000  69.815   0.000   0.000  71.352

                      1                      2                      3
                     A2                     B1                     A1
 Frequencies --    172.0215               203.8121               266.6909
 Red. masses --      1.0272                 1.0401                 2.5551
 Frc consts  --      0.0179                 0.0255                 0.1071
 IR Inten    --      0.0000                 0.4881                 2.5864

                      4                      5                      6
                     A2                     B1                     B2
 Frequencies --    296.1307               358.1554               454.1766
 Red. masses --      3.9801                 3.1421                 4.3975
 Frc consts  --      0.2056                 0.2375                 0.5345
 IR Inten    --      0.0000                 0.5983                34.9965

                      7                      8                      9
                     A1                     A1                     B2
 Frequencies --    485.4220               664.8736               731.6196
 Red. masses --      8.2086                 4.7064                 2.9621
 Frc consts  --      1.1396                 1.2258                 0.9342
 IR Inten    --     24.9820                13.2884                51.5747

                     10                     11                     12
                     A2                     B2                     B1
 Frequencies --    934.8808               942.8251               990.7216
 Red. masses --      1.2573                 1.6635                 1.4163
 Frc consts  --      0.6474                 0.8712                 0.8191
 IR Inten    --      0.0000                68.3292                 0.4886

                     13                     14                     15
                     A1                     A1                     B2
 Frequencies --   1008.5732              1157.2038              1337.3004
 Red. masses --      1.4882                 8.3787                 1.2227
 Frc consts  --      0.8919                 6.6107                 1.2883
 IR Inten    --      0.7329               174.6330                12.7254

                     16                     17                     18
                     B1                     A1                     A2
 Frequencies --   1341.7221              1353.4411              1447.3882
 Red. masses --     13.9251                 1.2243                 1.0498
 Frc consts  --     14.7697                 1.3214                 1.2958
 IR Inten    --    257.5337                16.8959                 0.0000

                     19                     20                     21
                     B2                     A1                     B1
 Frequencies --   1449.8980              1460.0318              1462.7088
 Red. masses --      1.0517                 1.0451                 1.0545
 Frc consts  --      1.3026                 1.3126                 1.3292
 IR Inten    --      5.6771                 4.0601                 6.2708

                     22                     23                     24
                     B2                     A1                     B2
 Frequencies --   3060.0517              3063.0657              3156.5965
 Red. masses --      1.0292                 1.0292                 1.1046
 Frc consts  --      5.6780                 5.6894                 6.4845
 IR Inten    --      0.0577                 1.6765                 0.6165

                     25                     26                     27
                     A1                     A2                     B1
 Frequencies --   3157.8205              3161.4531              3165.8734
 Red. masses --      1.1051                 1.1074                 1.1073
 Frc consts  --      6.4925                 6.5212                 6.5386
 IR Inten    --      0.8189                 0.0000                 2.0738

 - Thermochemistry -
 -------------------
 Temperature   298.150 Kelvin.  Pressure   1.00000 Atm.
 Atom     1 has atomic number 16 and mass  31.97207

 Molecular mass:    94.00885 amu.
 Principal axes and moments of inertia in atomic units:
                           1         2         3
     Eigenvalues --   394.08745 427.59735 439.37653
           X           -0.00000   0.00000   1.00000
           Y            1.00000   0.00000   0.00000
           Z           -0.00000   1.00000   0.00000
 This molecule is an asymmetric top.
 Rotational symmetry number  2.
 Rotational temperatures (Kelvin)      0.21978     0.20256     0.19713
 Rotational constants (GHZ):           4.57954     4.22066     4.10750
 Zero-point vibrational energy     223010.6 (Joules/Mol)
                                   53.30081 (Kcal/Mol)
 Warning -- explicit consideration of   7 degrees of freedom as
           vibrations may cause significant error
 Vibrational temperatures:    247.50   293.24   383.71   426.07   515.31
          (Kelvin)            653.46   698.41   956.60  1052.64  1345.08
                             1356.52  1425.43  1451.11  1664.96  1924.08
                             1930.44  1947.30  2082.47  2086.08  2100.66
                             2104.51  4402.73  4407.07  4541.64  4543.40
                             4548.63  4554.99

 Zero-point correction=                           0.084940 (Hartree/Particle)
 Thermal correction to Energy=                    0.091137
 Thermal correction to Enthalpy=                  0.092081
 Thermal correction to Gibbs Free Energy=         0.056273
 Sum of electronic and zero-point Energies=           -628.496445
 Sum of electronic and thermal Energies=              -628.490249
 Sum of electronic and thermal Enthalpies=            -628.489305
 Sum of electronic and thermal Free Energies=         -628.525112

                     E (Thermal)             CV                S
                      KCal/Mol        Cal/Mol-Kelvin    Cal/Mol-Kelvin
 Total                   57.189             21.572             75.363
 Electronic               0.000              0.000              0.000
 Translational            0.889              2.981             39.534
 Rotational               0.889              2.981             24.430
 Vibrational             55.412             15.610             11.399
 Vibration     1          0.626              1.877              2.413
 Vibration     2          0.639              1.834              2.098
 Vibration     3          0.672              1.734              1.618
 Vibration     4          0.690              1.681              1.439
 Vibration     5          0.733              1.558              1.130
 Vibration     6          0.813              1.352              0.783
 Vibration     7          0.841              1.282              0.696

 Optimization completed.
    -- Stationary point found.
 Normal termination of Gaussian 16 at Sat Feb 26 09:48:36 2022.
