 Gaussian 16, Revision B.01,

 ---------------------------------------
 # b3lyp/gen opt freq CPHF(Grid=OneStep)
 ---------------------------------------

 --------------------------------
 dimethylsulfoxide, B3LYP/pcseg-2
 --------------------------------
 Symbolic Z-matrix:
 Charge =  0 Multiplicity = 1

 SCF Done:  E(RB3LYP) =  -553.316737682     A.U. after   13 cycles
 Optimization completed.
    -- Stationary point found.
 Normal termination of Gaussian 16 at Sun Oct  1 00:40:39 2023.

 ------------------------------------------------------------------
 #N Geom=AllCheck Guess=TCheck SCRF=Check GenChk RB3LYP/ChkBas Freq
 ------------------------------------------------------------------

 Structure from the checkpoint file:  "DMSO.chk"
 --------------------------------
 dimethylsulfoxide, B3LYP/pcseg-2
 --------------------------------
 Charge =  0 Multiplicity = 1

 SCF Done:  E(RB3LYP) =  -553.316737682     A.U. after    1 cycles

  Exact polarizability:  45.025  -5.209  50.248   0.000   0.000  55.621
 Approx polarizability:  70.235 -10.884  75.168  -0.000  -0.000  74.584

                      1                      2                      3
                     A"                     A'                     A'
 Frequencies --    179.6232               223.8228               282.8487
 Red. masses --      1.0293                 1.0583                 2.5549
 Frc consts  --      0.0196                 0.0312                 0.1204
 IR Inten    --      0.0018                 0.4458                 0.3411

                      4                      5                      6
                     A"                     A'                     A'
 Frequencies --    318.2047               371.2917               633.5250
 Red. masses --      4.0645                 3.1496                 4.6275
 Frc consts  --      0.2425                 0.2558                 1.0943
 IR Inten    --      9.4280                 7.7941                 8.7605

                      7                      8                      9
                     A"                     A"                     A"
 Frequencies --    660.9787               889.9884               921.6651
 Red. masses --      4.0690                 1.1880                 1.3967
 Frc consts  --      1.0474                 0.5544                 0.6990
 IR Inten    --     19.5415                 1.6291                 7.5764

                     10                     11                     12
                     A'                     A'                     A'
 Frequencies --    953.7679              1022.7163              1101.8819
 Red. masses --      1.5114                 1.3789                 9.8823
 Frc consts  --      0.8101                 0.8498                 7.0693
 IR Inten    --      9.6735                15.4147               144.5485

                     13                     14                     15
                     A"                     A'                     A"
 Frequencies --   1316.1789              1337.5540              1440.0750
 Red. masses --      1.1949                 1.1927                 1.0535
 Frc consts  --      1.2196                 1.2572                 1.2873
 IR Inten    --      1.4197                 9.0021                 9.8048

                     16                     17                     18
                     A'                     A"                     A'
 Frequencies --   1453.6746              1456.2440              1473.0864
 Red. masses --      1.0458                 1.0539                 1.0514
 Frc consts  --      1.3020                 1.3168                 1.3442
 IR Inten    --      4.9759                 0.0029                21.2082

                     19                     20                     21
                     A"                     A'                     A"
 Frequencies --   3039.2282              3041.7447              3133.4050
 Red. masses --      1.0293                 1.0290                 1.1067
 Frc consts  --      5.6017                 5.6094                 6.4022
 IR Inten    --      4.1812                 7.8958                 0.0756

                     22                     23                     24
                     A'                     A"                     A'
 Frequencies --   3137.7375              3145.4339              3145.9654
 Red. masses --      1.1061                 1.1042                 1.1048
 Frc consts  --      6.4160                 6.4368                 6.4420
 IR Inten    --     10.9928                 1.3611                 3.4244

 - Thermochemistry -
 -------------------
 Temperature   298.150 Kelvin.  Pressure   1.00000 Atm.
 Atom     1 has atomic number 16 and mass  31.97207

 Molecular mass:    78.01394 amu.
 Principal axes and moments of inertia in atomic units:
                           1         2         3
     Eigenvalues --   260.37824 264.97667 435.00085
           X            0.00000  -0.53377   0.84563
           Y           -0.00000   0.84563   0.53377
           Z            1.00000   0.00000   0.00000
 This molecule is an asymmetric top.
 Rotational symmetry number  1.
 Rotational temperatures (Kelvin)      0.33265     0.32687     0.19911
 Rotational constants (GHZ):           6.93123     6.81094     4.14882
 Zero-point vibrational energy     207436.3 (Joules/Mol)
                                   49.57847 (Kcal/Mol)
 Warning -- explicit consideration of   5 degrees of freedom as
           vibrations may cause significant error
 Vibrational temperatures:    258.44   322.03   406.96   457.83   534.21
          (Kelvin)            911.50   951.00  1280.49  1326.07  1372.26
                             1471.46  1585.36  1893.69  1924.44  2071.95
                             2091.51  2095.21  2119.44  4372.77  4376.39
                             4508.27  4514.50  4525.58  4526.34

 Zero-point correction=                           0.079008 (Hartree/Particle)
 Thermal correction to Energy=                    0.084661
 Thermal correction to Enthalpy=                  0.085605
 Thermal correction to Gibbs Free Energy=         0.050707
 Sum of electronic and zero-point Energies=           -553.237729
 Sum of electronic and thermal Energies=              -553.232077
 Sum of electronic and thermal Enthalpies=            -553.231133
 Sum of electronic and thermal Free Energies=         -553.266031

                     E (Thermal)             CV                S
                      KCal/Mol        Cal/Mol-Kelvin    Cal/Mol-Kelvin
 Total                   53.125             19.045             73.449
 Electronic               0.000              0.000              0.000
 Translational            0.889              2.981             38.978
 Rotational               0.889              2.981             24.910
 Vibrational             51.348             13.083              9.561
 Vibration     1          0.629              1.867              2.332
 Vibration     2          0.649              1.805              1.928
 Vibration     3          0.682              1.705              1.516
 Vibration     4          0.705              1.639              1.319
 Vibration     5          0.743              1.531              1.074

 Optimization completed.
    -- Stationary point found.
 Normal termination of Gaussian 16 at Sun Oct  1 00:44:45 2023.
 Gaussian 16:  ES64L-G16RevB.01 20-Dec-2017

 ---------------------------------
 # rohf/gen geom=check guess=check
 ---------------------------------

 -----------------------------------
 dimethylsulfoxide, ROHF/cc-pVTZ-F12
 -----------------------------------
 Structure from the checkpoint file:  "DMSO.chk"
 Charge =  0 Multiplicity = 1

                         Standard orientation:
 ---------------------------------------------------------------------
 Center     Atomic      Atomic             Coordinates (Angstroms)
 Number     Number       Type             X           Y           Z
 ---------------------------------------------------------------------
      1         16           0        0.256408    0.427479    0.000000
      2          8           0       -1.087562    1.076359   -0.000000
      3          6           0        0.256408   -0.785575    1.357606
      4          6           0        0.256408   -0.785575   -1.357606
      5          1           0        1.180840   -1.361429    1.338050
      6          1           0        1.180840   -1.361429   -1.338050
      7          1           0        0.193789   -0.217801    2.283010
      8          1           0        0.193789   -0.217801   -2.283010
      9          1           0       -0.614093   -1.432591    1.260246
     10          1           0       -0.614093   -1.432591   -1.260246
 ---------------------------------------------------------------------

 SCF Done:  E(ROHF) =  -551.674834507     A.U. after   12 cycles

 The electronic state is 1-A'.
 Alpha  occ. eigenvalues --  -92.06308 -20.50343 -11.26175 -11.26174  -9.05063
 Alpha  occ. eigenvalues --   -6.73278  -6.73261  -6.73142  -1.33632  -1.05967
 Alpha  occ. eigenvalues --   -0.97516  -0.81638  -0.64089  -0.62640  -0.62144
 Alpha  occ. eigenvalues --   -0.58740  -0.56511  -0.54536  -0.51744  -0.42037
 Alpha  occ. eigenvalues --   -0.36852
 Alpha virt. eigenvalues --    0.04394   0.04608   0.05709   0.07193   0.08486
 Alpha virt. eigenvalues --    0.08729   0.08999   0.10027   0.10861   0.11790
 Alpha virt. eigenvalues --    0.15882   0.16466   0.18896   0.19741   0.19982

 Mulliken charges and spin densities:
               1          2
     1  S    1.031801   0.000000
     2  O   -0.875022   0.000000
     3  C   -0.375842   0.000000
     4  C   -0.375842   0.000000
     5  H    0.084359   0.000000
     6  H    0.084359   0.000000
     7  H    0.107618   0.000000
     8  H    0.107618   0.000000
     9  H    0.105476   0.000000
    10  H    0.105476   0.000000
 Sum of Mulliken charges =  -0.00000   0.00000

 Dipole moment (field-independent basis, Debye):
    X=              2.8437    Y=             -3.5781    Z=             -0.0000  Tot=              4.5705
 Quadrupole moment (field-independent basis, Debye-Ang):
   XX=            -36.1219   YY=            -34.4270   ZZ=            -28.2940
   XY=              2.5648   XZ=              0.0000   YZ=              0.0000

 Normal termination of Gaussian 16 at Sun Oct  1 00:46:06 2023.
