 Gaussian 16, Revision B.01,
 Gaussian 16:  ES64L-G16RevB.01 20-Dec-2017

 --------------------
 # b3lyp/gen opt freq
 --------------------

 --------------------------------
 dimethylsulfoxide, B3LYP/pcseg-2
 --------------------------------
 Symbolic Z-matrix:
 Charge =  0 Multiplicity = 1

 SCF Done:  E(RB3LYP) =  -553.316270836     A.U. after   13 cycles
 SCF Done:  E(RB3LYP) =  -553.316679154     A.U. after   10 cycles
 SCF Done:  E(RB3LYP) =  -553.316729874     A.U. after   10 cycles
 SCF Done:  E(RB3LYP) =  -553.316737015     A.U. after    7 cycles
 SCF Done:  E(RB3LYP) =  -553.316737637     A.U. after    7 cycles
 SCF Done:  E(RB3LYP) =  -553.316737682     A.U. after    6 cycles
 Optimization completed.
    -- Stationary point found.
 Normal termination of Gaussian 16 at Sat Feb 26 09:13:12 2022.

 ------------------------------------------------------------------
 #N Geom=AllCheck Guess=TCheck SCRF=Check GenChk RB3LYP/ChkBas Freq
 ------------------------------------------------------------------

 Structure from the checkpoint file:  "/wrk/irikura/Gau-22728.chk"
 --------------------------------
 dimethylsulfoxide, B3LYP/pcseg-2
 --------------------------------
 Charge =  0 Multiplicity = 1

                         Standard orientation:
 ---------------------------------------------------------------------
 Center     Atomic      Atomic             Coordinates (Angstroms)
 Number     Number       Type             X           Y           Z
 ---------------------------------------------------------------------
      1         16           0        0.256408    0.427479   -0.000000
      2          8           0       -1.087562    1.076359   -0.000000
      3          6           0        0.256408   -0.785575    1.357606
      4          6           0        0.256408   -0.785575   -1.357606
      5          1           0        1.180840   -1.361429    1.338050
      6          1           0        1.180840   -1.361429   -1.338050
      7          1           0        0.193789   -0.217801    2.283010
      8          1           0        0.193789   -0.217801   -2.283010
      9          1           0       -0.614093   -1.432591    1.260246
     10          1           0       -0.614093   -1.432591   -1.260246
 ---------------------------------------------------------------------

 SCF Done:  E(RB3LYP) =  -553.316737682     A.U. after    1 cycles

 The electronic state is 1-A'.
 Alpha  occ. eigenvalues --  -88.94200 -19.08288 -10.20315 -10.20314  -8.02057
 Alpha  occ. eigenvalues --   -5.98263  -5.98247  -5.97683  -1.01531  -0.79687
 Alpha  occ. eigenvalues --   -0.72837  -0.60867  -0.47606  -0.46529  -0.46497
 Alpha  occ. eigenvalues --   -0.43385  -0.40955  -0.39971  -0.36375  -0.28009
 Alpha  occ. eigenvalues --   -0.23921
 Alpha virt. eigenvalues --    0.00498   0.01188   0.02611   0.04851   0.05361
 Alpha virt. eigenvalues --    0.06223   0.06459   0.08637   0.10557   0.14932
 Alpha virt. eigenvalues --    0.15195   0.18802   0.18848   0.21133   0.22926

 Mulliken charges:
               1
     1  S    0.595284
     2  O   -0.620741
     3  C   -0.144095
     4  C   -0.144095
     5  H    0.034245
     6  H    0.034245
     7  H    0.064856
     8  H    0.064856
     9  H    0.057722
    10  H    0.057722
 Sum of Mulliken charges =  -0.00000

 Dipole moment (field-independent basis, Debye):
    X=              2.6547    Y=             -3.1833    Z=              0.0000  Tot=              4.1450
 Quadrupole moment (field-independent basis, Debye-Ang):
   XX=            -35.8313   YY=            -34.6018   ZZ=            -28.9452
   XY=              2.4263   XZ=              0.0000   YZ=             -0.0000

  Exact polarizability:  45.025  -5.210  50.248   0.000   0.000  55.620
 Approx polarizability:  70.235 -10.884  75.168   0.000  -0.000  74.583

                      1                      2                      3
                     A"                     A'                     A'
 Frequencies --    179.6220               223.8212               282.8472
 Red. masses --      1.0293                 1.0583                 2.5549
 Frc consts  --      0.0196                 0.0312                 0.1204
 IR Inten    --      0.0018                 0.4458                 0.3412

                      4                      5                      6
                     A"                     A'                     A'
 Frequencies --    318.2074               371.2884               633.5224
 Red. masses --      4.0645                 3.1496                 4.6275
 Frc consts  --      0.2425                 0.2558                 1.0943
 IR Inten    --      9.4287                 7.7931                 8.7604

                      7                      8                      9
                     A"                     A"                     A"
 Frequencies --    660.9813               889.9916               921.6656
 Red. masses --      4.0691                 1.1880                 1.3967
 Frc consts  --      1.0474                 0.5544                 0.6990
 IR Inten    --     19.5411                 1.6287                 7.5758

                     10                     11                     12
                     A'                     A'                     A'
 Frequencies --    953.7646              1022.7164              1101.8813
 Red. masses --      1.5114                 1.3789                 9.8821
 Frc consts  --      0.8101                 0.8498                 7.0692
 IR Inten    --      9.6742                15.4147               144.5502

                     13                     14                     15
                     A"                     A'                     A"
 Frequencies --   1316.1794              1337.5531              1440.0790
 Red. masses --      1.1949                 1.1927                 1.0535
 Frc consts  --      1.2196                 1.2572                 1.2873
 IR Inten    --      1.4198                 9.0029                 9.8017

                     16                     17                     18
                     A'                     A"                     A'
 Frequencies --   1453.6736              1456.2394              1473.0858
 Red. masses --      1.0458                 1.0539                 1.0514
 Frc consts  --      1.3020                 1.3168                 1.3442
 IR Inten    --      4.9763                 0.0029                21.2093

                     19                     20                     21
                     A"                     A'                     A"
 Frequencies --   3039.2302              3041.7439              3133.4058
 Red. masses --      1.0293                 1.0290                 1.1067
 Frc consts  --      5.6017                 5.6094                 6.4022
 IR Inten    --      4.1811                 7.8952                 0.0730

                     22                     23                     24
                     A'                     A"                     A'
 Frequencies --   3137.7366              3145.4360              3145.9689
 Red. masses --      1.1061                 1.1042                 1.1048
 Frc consts  --      6.4160                 6.4368                 6.4420
 IR Inten    --     10.9933                 1.3620                 3.4242

 - Thermochemistry -
 -------------------
 Temperature   298.150 Kelvin.  Pressure   1.00000 Atm.
 Atom     1 has atomic number 16 and mass  31.97207

 Molecular mass:    78.01394 amu.
 Principal axes and moments of inertia in atomic units:
                           1         2         3
     Eigenvalues --   260.37815 264.97668 435.00073
           X            0.00000  -0.53377   0.84563
           Y           -0.00000   0.84563   0.53377
           Z            1.00000   0.00000   0.00000
 This molecule is an asymmetric top.
 Rotational symmetry number  1.
 Rotational temperatures (Kelvin)      0.33265     0.32687     0.19911
 Rotational constants (GHZ):           6.93123     6.81094     4.14882
 Zero-point vibrational energy     207436.3 (Joules/Mol)
                                   49.57847 (Kcal/Mol)
 Warning -- explicit consideration of   5 degrees of freedom as
           vibrations may cause significant error
 Vibrational temperatures:    258.44   322.03   406.95   457.83   534.20
          (Kelvin)            911.50   951.00  1280.50  1326.07  1372.25
                             1471.46  1585.36  1893.69  1924.44  2071.95
                             2091.51  2095.20  2119.44  4372.77  4376.39
                             4508.27  4514.50  4525.58  4526.35

 Zero-point correction=                           0.079008 (Hartree/Particle)
 Thermal correction to Energy=                    0.084661
 Thermal correction to Enthalpy=                  0.085605
 Thermal correction to Gibbs Free Energy=         0.050707
 Sum of electronic and zero-point Energies=           -553.237729
 Sum of electronic and thermal Energies=              -553.232077
 Sum of electronic and thermal Enthalpies=            -553.231133
 Sum of electronic and thermal Free Energies=         -553.266031

                     E (Thermal)             CV                S
                      KCal/Mol        Cal/Mol-Kelvin    Cal/Mol-Kelvin
 Total                   53.125             19.045             73.449
 Electronic               0.000              0.000              0.000
 Translational            0.889              2.981             38.978
 Rotational               0.889              2.981             24.910
 Vibrational             51.348             13.083              9.561
 Vibration     1          0.629              1.867              2.332
 Vibration     2          0.649              1.805              1.928
 Vibration     3          0.682              1.705              1.516
 Vibration     4          0.705              1.639              1.319
 Vibration     5          0.743              1.531              1.074

 Optimization completed.
    -- Stationary point found.
 Normal termination of Gaussian 16 at Sat Feb 26 09:15:05 2022.
