 Gaussian 16, Revision B.01,
 Gaussian 16:  ES64L-G16RevB.01 20-Dec-2017

 --------------------
 # b3lyp/gen opt freq
 --------------------

 ------------------------------------------------
 Ethylene carbonate geom and freqs, B3LYP/pcseg-2
 ------------------------------------------------
 Symbolic Z-matrix:
 Charge =  0 Multiplicity = 1

 SCF Done:  E(RB3LYP) =  -342.541343186     A.U. after   13 cycles
 SCF Done:  E(RB3LYP) =  -342.544066067     A.U. after   10 cycles
 SCF Done:  E(RB3LYP) =  -342.544596623     A.U. after   10 cycles
 SCF Done:  E(RB3LYP) =  -342.544635363     A.U. after    8 cycles
 SCF Done:  E(RB3LYP) =  -342.544639336     A.U. after    7 cycles
 SCF Done:  E(RB3LYP) =  -342.544641546     A.U. after    8 cycles
 SCF Done:  E(RB3LYP) =  -342.544643178     A.U. after    7 cycles
 SCF Done:  E(RB3LYP) =  -342.544643638     A.U. after    7 cycles
 Optimization completed.
    -- Stationary point found.
 Normal termination of Gaussian 16 at Tue Feb  8 10:43:04 2022.

 ------------------------------------------------------------------
 #N Geom=AllCheck Guess=TCheck SCRF=Check GenChk RB3LYP/ChkBas Freq
 ------------------------------------------------------------------

 Structure from the checkpoint file:  "EC.chk"
 ------------------------------------------------
 Ethylene carbonate geom and freqs, B3LYP/pcseg-2
 ------------------------------------------------
 Charge =  0 Multiplicity = 1

                         Standard orientation:
 ---------------------------------------------------------------------
 Center     Atomic      Atomic             Coordinates (Angstroms)
 Number     Number       Type             X           Y           Z
 ---------------------------------------------------------------------
      1          6           0       -0.000000   -0.000000    0.851984
      2          8           0       -0.000000   -0.000000    2.038585
      3          8           0        0.000000    1.113882    0.074008
      4          8           0       -0.000000   -1.113882    0.074008
      5          6           0        0.173131    0.744834   -1.300607
      6          6           0       -0.173131   -0.744834   -1.300607
      7          1           0       -0.493508    1.347700   -1.911121
      8          1           0        1.207403    0.936393   -1.587595
      9          1           0        0.493508   -1.347700   -1.911121
     10          1           0       -1.207403   -0.936393   -1.587595
 ---------------------------------------------------------------------

 SCF Done:  E(RB3LYP) =  -342.544643638     A.U. after    1 cycles

 The electronic state is 1-A.
 Alpha  occ. eigenvalues --  -19.19027 -19.19026 -19.11730 -10.35470 -10.26540
 Alpha  occ. eigenvalues --  -10.26516  -1.16943  -1.05827  -1.05267  -0.79838
 Alpha  occ. eigenvalues --   -0.69396  -0.62123  -0.55952  -0.53309  -0.52071
 Alpha  occ. eigenvalues --   -0.45887  -0.45474  -0.45165  -0.39514  -0.39285
 Alpha  occ. eigenvalues --   -0.32722  -0.32521  -0.30985
 Alpha virt. eigenvalues --   -0.00384   0.01656   0.01798   0.03318   0.03667
 Alpha virt. eigenvalues --    0.08233   0.10703   0.11577   0.13241   0.14750
 Alpha virt. eigenvalues --    0.16094   0.17743   0.19326   0.22451   0.23566

 Mulliken charges:
               1
     1  C    0.611488
     2  O   -0.384698
     3  O   -0.383300
     4  O   -0.383300
     5  C    0.176827
     6  C    0.176827
     7  H    0.048471
     8  H    0.044607
     9  H    0.048471
    10  H    0.044607
 Sum of Mulliken charges =   0.00000

 Dipole moment (field-independent basis, Debye):
    X=              0.0000    Y=             -0.0000    Z=             -5.5269  Tot=              5.5269
 Quadrupole moment (field-independent basis, Debye-Ang):
   XX=            -32.2882   YY=            -36.4434   ZZ=            -36.6138
   XY=              0.2590   XZ=              0.0000   YZ=              0.0000

  Exact polarizability:  33.267   0.986  40.415   0.000   0.000  55.238
 Approx polarizability:  47.086   0.325  56.758   0.000   0.000  76.514

                      1                      2                      3
                      A                      B                      B
 Frequencies --    151.1499               188.8840               523.3091
 Red. masses --      2.1712                 5.0894                 8.8370
 Frc consts  --      0.0292                 0.1070                 1.4258
 IR Inten    --      0.2720                 1.3758                 0.1597

                      4                      5                      6
                      B                      A                      B
 Frequencies --    700.0531               721.7961               773.7309
 Red. masses --      2.7642                11.1327                10.9148
 Frc consts  --      0.7981                 3.4173                 3.8499
 IR Inten    --      0.6695                 4.9920                23.8488

                      7                      8                      9
                      B                      A                      A
 Frequencies --    885.8191               891.5500               966.5909
 Red. masses --      1.5605                 9.4015                 2.5439
 Frc consts  --      0.7214                 4.4029                 1.4003
 IR Inten    --      0.7539                 3.5916                21.2147

                     10                     11                     12
                      B                      A                      B
 Frequencies --   1055.8119              1093.8832              1125.7002
 Red. masses --      5.4397                 9.5017                 4.7573
 Frc consts  --      3.5727                 6.6987                 3.5518
 IR Inten    --      9.8736               211.7373               272.1864

                     13                     14                     15
                      A                      B                      A
 Frequencies --   1159.1447              1240.6387              1248.5509
 Red. masses --      1.6535                 1.1460                 1.1343
 Frc consts  --      1.3090                 1.0393                 1.0418
 IR Inten    --      2.7111                 6.9008                12.8673

                     16                     17                     18
                      A                      B                      B
 Frequencies --   1388.8726              1406.8400              1524.9064
 Red. masses --      1.3439                 1.5008                 1.0901
 Frc consts  --      1.5274                 1.7501                 1.4935
 IR Inten    --      0.3108                34.7734                 7.9679

                     19                     20                     21
                      A                      A                      A
 Frequencies --   1532.8539              1891.0137              3056.7457
 Red. masses --      1.0905                12.9293                 1.0690
 Frc consts  --      1.5097                27.2404                 5.8848
 IR Inten    --      0.3641               662.2895                28.3001

                     22                     23                     24
                      B                      A                      B
 Frequencies --   3060.2534              3120.5188              3133.7413
 Red. masses --      1.0610                 1.1001                 1.1068
 Frc consts  --      5.8546                 6.3115                 6.4039
 IR Inten    --     29.9625                11.6538                19.1538

 - Thermochemistry -
 -------------------
 Temperature   298.150 Kelvin.  Pressure   1.00000 Atm.
 Atom     1 has atomic number  6 and mass  12.00000

 Molecular mass:    88.01604 amu.
 Principal axes and moments of inertia in atomic units:
                           1         2         3
     Eigenvalues --   223.48678 470.31959 666.30388
           X            0.00000   0.07369   0.99728
           Y            0.00000   0.99728  -0.07369
           Z            1.00000  -0.00000  -0.00000
 This molecule is an asymmetric top.
 Rotational symmetry number  2.
 Rotational temperatures (Kelvin)      0.38756     0.18416     0.12999
 Rotational constants (GHZ):           8.07538     3.83727     2.70859
 Zero-point vibrational energy     196440.9 (Joules/Mol)
                                   46.95051 (Kcal/Mol)
 Warning -- explicit consideration of   3 degrees of freedom as
           vibrations may cause significant error
 Vibrational temperatures:    217.47   271.76   752.93  1007.22  1038.50
          (Kelvin)           1113.23  1274.50  1282.74  1390.71  1519.08
                             1573.85  1619.63  1667.75  1785.00  1796.39
                             1998.28  2024.13  2194.00  2205.43  2720.75
                             4397.98  4403.02  4489.73  4508.75

 Zero-point correction=                           0.074820 (Hartree/Particle)
 Thermal correction to Energy=                    0.079688
 Thermal correction to Enthalpy=                  0.080632
 Thermal correction to Gibbs Free Energy=         0.046993
 Sum of electronic and zero-point Energies=           -342.469823
 Sum of electronic and thermal Energies=              -342.464956
 Sum of electronic and thermal Enthalpies=            -342.464011
 Sum of electronic and thermal Free Energies=         -342.497650

                     E (Thermal)             CV                S
                      KCal/Mol        Cal/Mol-Kelvin    Cal/Mol-Kelvin
 Total                   50.005             16.495             70.799
 Electronic               0.000              0.000              0.000
 Translational            0.889              2.981             39.338
 Rotational               0.889              2.981             24.374
 Vibrational             48.228             10.533              7.087
 Vibration     1          0.619              1.901              2.658
 Vibration     2          0.633              1.855              2.239
 Vibration     3          0.878              1.198              0.602

 Optimization completed.
    -- Stationary point found.
 Normal termination of Gaussian 16 at Tue Feb  8 10:46:21 2022.
