 Gaussian 16, Revision B.01,

 ---------------------------------------
 # b3lyp/gen opt freq CPHF(Grid=OneStep)
 ---------------------------------------

 ------------------------------------------------
 Ethylene carbonate geom and freqs, B3LYP/pcseg-2
 ------------------------------------------------
 Symbolic Z-matrix:
 Charge =  0 Multiplicity = 1

 SCF Done:  E(RB3LYP) =  -342.544643639     A.U. after   13 cycles
 Optimization completed.
    -- Stationary point found.
 Normal termination of Gaussian 16 at Sat Sep 30 15:23:25 2023.

 ------------------------------------------------------------------
 #N Geom=AllCheck Guess=TCheck SCRF=Check GenChk RB3LYP/ChkBas Freq
 ------------------------------------------------------------------

 Structure from the checkpoint file:  "EC.chk"
 ------------------------------------------------
 Ethylene carbonate geom and freqs, B3LYP/pcseg-2
 ------------------------------------------------
 Charge =  0 Multiplicity = 1

 SCF Done:  E(RB3LYP) =  -342.544643639     A.U. after    1 cycles

  Exact polarizability:  33.267   0.985  40.415   0.000   0.000  55.238
 Approx polarizability:  47.086   0.325  56.758   0.000  -0.000  76.514

                      1                      2                      3
                      A                      B                      B
 Frequencies --    151.1439               188.8817               523.3072
 Red. masses --      2.1712                 5.0894                 8.8370
 Frc consts  --      0.0292                 0.1070                 1.4258
 IR Inten    --      0.2720                 1.3757                 0.1598

                      4                      5                      6
                      B                      A                      B
 Frequencies --    700.0506               721.7936               773.7296
 Red. masses --      2.7640                11.1327                10.9147
 Frc consts  --      0.7981                 3.4173                 3.8498
 IR Inten    --      0.6695                 4.9909                23.8487

                      7                      8                      9
                      B                      A                      A
 Frequencies --    885.8142               891.5454               966.5888
 Red. masses --      1.5605                 9.4017                 2.5439
 Frc consts  --      0.7214                 4.4029                 1.4003
 IR Inten    --      0.7539                 3.5907                21.2134

                     10                     11                     12
                      B                      A                      B
 Frequencies --   1055.8108              1093.8828              1125.6994
 Red. masses --      5.4397                 9.5020                 4.7575
 Frc consts  --      3.5727                 6.6989                 3.5520
 IR Inten    --      9.8781               211.7359               272.1817

                     13                     14                     15
                      A                      B                      A
 Frequencies --   1159.1434              1240.6362              1248.5487
 Red. masses --      1.6535                 1.1460                 1.1343
 Frc consts  --      1.3090                 1.0393                 1.0418
 IR Inten    --      2.7106                 6.9006                12.8670

                     16                     17                     18
                      A                      B                      B
 Frequencies --   1388.8674              1406.8375              1524.9061
 Red. masses --      1.3439                 1.5008                 1.0901
 Frc consts  --      1.5273                 1.7501                 1.4935
 IR Inten    --      0.3105                34.7728                 7.9664

                     19                     20                     21
                      A                      A                      A
 Frequencies --   1532.8529              1891.0121              3056.7528
 Red. masses --      1.0905                12.9293                 1.0690
 Frc consts  --      1.5097                27.2404                 5.8849
 IR Inten    --      0.3642               662.2938                28.3024

                     22                     23                     24
                      B                      A                      B
 Frequencies --   3060.2600              3120.5242              3133.7455
 Red. masses --      1.0610                 1.1001                 1.1068
 Frc consts  --      5.8546                 6.3115                 6.4040
 IR Inten    --     29.9633                11.6533                19.1537

 - Thermochemistry -
 -------------------
 Temperature   298.150 Kelvin.  Pressure   1.00000 Atm.
 Atom     1 has atomic number  6 and mass  12.00000

 Molecular mass:    88.01604 amu.
 Principal axes and moments of inertia in atomic units:
                           1         2         3
     Eigenvalues --   223.48674 470.31957 666.30383
           X            0.00000   0.07369   0.99728
           Y           -0.00000   0.99728  -0.07369
           Z            1.00000   0.00000  -0.00000
 This molecule is an asymmetric top.
 Rotational symmetry number  2.
 Rotational temperatures (Kelvin)      0.38756     0.18416     0.12999
 Rotational constants (GHZ):           8.07538     3.83727     2.70859
 Zero-point vibrational energy     196440.8 (Joules/Mol)
                                   46.95047 (Kcal/Mol)
 Warning -- explicit consideration of   3 degrees of freedom as
           vibrations may cause significant error
 Vibrational temperatures:    217.46   271.76   752.92  1007.22  1038.50
          (Kelvin)           1113.22  1274.49  1282.73  1390.71  1519.08
                             1573.85  1619.63  1667.75  1785.00  1796.38
                             1998.27  2024.13  2194.00  2205.43  2720.74
                             4397.99  4403.03  4489.74  4508.76

 Zero-point correction=                           0.074820 (Hartree/Particle)
 Thermal correction to Energy=                    0.079688
 Thermal correction to Enthalpy=                  0.080632
 Thermal correction to Gibbs Free Energy=         0.046993
 Sum of electronic and zero-point Energies=           -342.469823
 Sum of electronic and thermal Energies=              -342.464956
 Sum of electronic and thermal Enthalpies=            -342.464011
 Sum of electronic and thermal Free Energies=         -342.497650

                     E (Thermal)             CV                S
                      KCal/Mol        Cal/Mol-Kelvin    Cal/Mol-Kelvin
 Total                   50.005             16.495             70.799
 Electronic               0.000              0.000              0.000
 Translational            0.889              2.981             39.338
 Rotational               0.889              2.981             24.374
 Vibrational             48.227             10.533              7.087
 Vibration     1          0.619              1.901              2.658
 Vibration     2          0.633              1.855              2.239
 Vibration     3          0.878              1.198              0.602

 Optimization completed.
    -- Stationary point found.
 Normal termination of Gaussian 16 at Sat Sep 30 15:30:30 2023.
 Gaussian 16:  ES64L-G16RevB.01 20-Dec-2017

 ---------------------------------
 # rohf/gen geom=check guess=check
 ---------------------------------

 ---------------------------------------------------
 Ethylene carbonate geom and freqs, ROHF/cc-pVTZ-F12
 ---------------------------------------------------
 Structure from the checkpoint file:  "EC.chk"
 Charge =  0 Multiplicity = 1

                         Standard orientation:
 ---------------------------------------------------------------------
 Center     Atomic      Atomic             Coordinates (Angstroms)
 Number     Number       Type             X           Y           Z
 ---------------------------------------------------------------------
      1          6           0        0.000000   -0.000000    0.851984
      2          8           0        0.000000   -0.000000    2.038585
      3          8           0       -0.000000    1.113882    0.074008
      4          8           0       -0.000000   -1.113882    0.074008
      5          6           0        0.173131    0.744834   -1.300607
      6          6           0       -0.173131   -0.744834   -1.300607
      7          1           0       -0.493508    1.347700   -1.911121
      8          1           0        1.207403    0.936393   -1.587595
      9          1           0        0.493508   -1.347700   -1.911121
     10          1           0       -1.207403   -0.936393   -1.587595
 ---------------------------------------------------------------------

 SCF Done:  E(ROHF) =  -340.684435203     A.U. after   12 cycles

 The electronic state is 1-A.
 Alpha  occ. eigenvalues --  -20.62414 -20.62411 -20.54598 -11.43489 -11.32463
 Alpha  occ. eigenvalues --  -11.32401  -1.52552  -1.39740  -1.39004  -1.05928
 Alpha  occ. eigenvalues --   -0.91674  -0.83702  -0.75152  -0.72682  -0.69684
 Alpha  occ. eigenvalues --   -0.64113  -0.63358  -0.61960  -0.57127  -0.54773
 Alpha  occ. eigenvalues --   -0.48604  -0.48150  -0.47297
 Alpha virt. eigenvalues --    0.03340   0.04193   0.05389   0.06013   0.08028
 Alpha virt. eigenvalues --    0.08809   0.08898   0.09040   0.09477   0.11578
 Alpha virt. eigenvalues --    0.15092   0.15135   0.18311   0.19453   0.20138

 Mulliken charges and spin densities:
               1          2
     1  C    0.970793   0.000000
     2  O   -0.589835   0.000000
     3  O   -0.509851   0.000000
     4  O   -0.509851   0.000000
     5  C    0.089235   0.000000
     6  C    0.089235   0.000000
     7  H    0.119603   0.000000
     8  H    0.110534   0.000000
     9  H    0.119603   0.000000
    10  H    0.110534   0.000000
 Sum of Mulliken charges =  -0.00000   0.00000

 Dipole moment (field-independent basis, Debye):
    X=              0.0000    Y=             -0.0000    Z=             -5.9481  Tot=              5.9481
 Quadrupole moment (field-independent basis, Debye-Ang):
   XX=            -32.0198   YY=            -36.3804   ZZ=            -36.7562
   XY=              0.3148   XZ=             -0.0000   YZ=              0.0000

 Normal termination of Gaussian 16 at Sat Sep 30 15:32:57 2023.
