 Gaussian 16, Revision B.01,
 Gaussian 16:  ES64L-G16RevB.01 20-Dec-2017

 --------------------
 # b3lyp/gen opt freq
 --------------------

 ----------------------------
 diethyl ether, B3LYP/pcseg-2
 ----------------------------
 Symbolic Z-matrix:
 Charge =  0 Multiplicity = 1

 SCF Done:  E(RB3LYP) =  -233.764728092     A.U. after   11 cycles
 SCF Done:  E(RB3LYP) =  -233.764806050     A.U. after    8 cycles
 SCF Done:  E(RB3LYP) =  -233.764807649     A.U. after    6 cycles
 SCF Done:  E(RB3LYP) =  -233.764807777     A.U. after    5 cycles
 Optimization completed.
    -- Stationary point found.
 Normal termination of Gaussian 16 at Tue Sep 12 11:29:48 2023.

 ------------------------------------------------------------------
 #N Geom=AllCheck Guess=TCheck SCRF=Check GenChk RB3LYP/ChkBas Freq
 ------------------------------------------------------------------

 Structure from the checkpoint file:  "/wrk/irikura/Gau-337968.chk"
 ----------------------------
 diethyl ether, B3LYP/pcseg-2
 ----------------------------
 Charge =  0 Multiplicity = 1

                         Standard orientation:
 ---------------------------------------------------------------------
 Center     Atomic      Atomic             Coordinates (Angstroms)
 Number     Number       Type             X           Y           Z
 ---------------------------------------------------------------------
      1          8           0        0.000000    0.000000    0.259454
      2          6           0       -0.000000    1.184462   -0.516903
      3          6           0       -0.000000   -1.184462   -0.516903
      4          6           0       -0.000000    2.381494    0.411278
      5          6           0       -0.000000   -2.381494    0.411278
      6          1           0        0.884067    1.202078   -1.169008
      7          1           0       -0.884067    1.202078   -1.169008
      8          1           0        0.884067   -1.202078   -1.169008
      9          1           0       -0.884067   -1.202078   -1.169008
     10          1           0       -0.000000    3.307346   -0.165280
     11          1           0       -0.000000   -3.307346   -0.165280
     12          1           0       -0.883274    2.372975    1.049615
     13          1           0        0.883274    2.372975    1.049615
     14          1           0        0.883274   -2.372975    1.049615
     15          1           0       -0.883274   -2.372975    1.049615
 ---------------------------------------------------------------------

 SCF Done:  E(RB3LYP) =  -233.764807777     A.U. after    1 cycles

 The electronic state is 1-A1.
 Alpha  occ. eigenvalues --  -19.12098 -10.21617 -10.21617 -10.16008 -10.16008
 Alpha  occ. eigenvalues --   -1.03299  -0.77776  -0.72793  -0.62171  -0.60424
 Alpha  occ. eigenvalues --   -0.49807  -0.49092  -0.44453  -0.43472  -0.39863
 Alpha  occ. eigenvalues --   -0.37741  -0.37711  -0.35863  -0.34623  -0.32124
 Alpha  occ. eigenvalues --   -0.26102
 Alpha virt. eigenvalues --    0.01549   0.03083   0.04170   0.05081   0.07425
 Alpha virt. eigenvalues --    0.07432   0.08500   0.09837   0.09859   0.10355
 Alpha virt. eigenvalues --    0.11579   0.14157   0.14971   0.15873   0.17428

 Mulliken charges:
               1
     1  O   -0.444998
     2  C    0.220740
     3  C    0.220740
     4  C   -0.056912
     5  C   -0.056912
     6  H   -0.005855
     7  H   -0.005855
     8  H   -0.005855
     9  H   -0.005855
    10  H    0.014739
    11  H    0.014739
    12  H    0.027821
    13  H    0.027821
    14  H    0.027821
    15  H    0.027821
 Sum of Mulliken charges =  -0.00000

 Dipole moment (field-independent basis, Debye):
    X=             -0.0000    Y=              0.0000    Z=             -1.1199  Tot=              1.1199
 Quadrupole moment (field-independent basis, Debye-Ang):
   XX=            -33.3710   YY=            -31.0899   ZZ=            -34.2024
   XY=             -0.0000   XZ=              0.0000   YZ=             -0.0000

  Exact polarizability:  50.597   0.000  67.989   0.000   0.000  54.044
 Approx polarizability:  71.628   0.000  76.321  -0.000  -0.000  74.678

                      1                      2                      3
                     A2                     B1                     A1
 Frequencies --    101.0268               106.2825               192.8256
 Red. masses --      1.5754                 3.2237                 2.6886
 Frc consts  --      0.0095                 0.0215                 0.0589
 IR Inten    --      0.0000                 4.3769                 0.6803

                      4                      5                      6
                     A2                     B1                     B2
 Frequencies --    245.4166               250.0737               435.0985
 Red. masses --      1.1427                 1.1896                 2.5137
 Frc consts  --      0.0405                 0.0438                 0.2804
 IR Inten    --      0.0000                 1.3272                 2.7187

                      7                      8                      9
                     A1                     A2                     B1
 Frequencies --    437.3950               819.2641               830.3498
 Red. masses --      3.3560                 1.0801                 1.0919
 Frc consts  --      0.3783                 0.4271                 0.4436
 IR Inten    --      0.0259                 0.0000                 0.5638

                     10                     11                     12
                     A1                     B2                     A1
 Frequencies --    855.9488               943.2111              1050.6103
 Red. masses --      1.9227                 2.1272                 2.9717
 Frc consts  --      0.8299                 1.1150                 1.9326
 IR Inten    --      8.8196                 5.6518                12.7562

                     13                     14                     15
                     B2                     B2                     A2
 Frequencies --   1095.6777              1147.2856              1169.3271
 Red. masses --      2.1477                 5.3585                 1.4750
 Frc consts  --      1.5191                 4.1556                 1.1882
 IR Inten    --     15.9728               209.8971                 0.0000

                     16                     17                     18
                     A1                     B1                     A2
 Frequencies --   1176.4831              1198.0047              1296.2474
 Red. masses --      2.4212                 1.6161                 1.0917
 Frc consts  --      1.9745                 1.3666                 1.0808
 IR Inten    --     19.8273                11.0664                 0.0000

                     19                     20                     21
                     B1                     B2                     A1
 Frequencies --   1301.6780              1383.4911              1406.7100
 Red. masses --      1.1145                 1.2159                 1.2302
 Frc consts  --      1.1126                 1.3712                 1.4343
 IR Inten    --      4.2765                36.8471                 1.0469

                     22                     23                     24
                     B2                     A1                     A2
 Frequencies --   1412.4466              1447.2324              1482.8917
 Red. masses --      1.2818                 1.4635                 1.0395
 Frc consts  --      1.5067                 1.8060                 1.3468
 IR Inten    --     22.4514                 5.1585                 0.0000

                     25                     26                     27
                     B1                     B2                     A1
 Frequencies --   1483.1091              1497.9933              1500.6773
 Red. masses --      1.0388                 1.0483                 1.0470
 Frc consts  --      1.3462                 1.3859                 1.3892
 IR Inten    --     12.4438                 2.9128                 3.6035

                     28                     29                     30
                     B2                     A1                     B2
 Frequencies --   1517.3105              1533.5625              2950.5834
 Red. masses --      1.0864                 1.0898                 1.0541
 Frc consts  --      1.4736                 1.5101                 5.4068
 IR Inten    --      2.2484                 2.2691                10.9732

                     31                     32                     33
                     A1                     B1                     A2
 Frequencies --   2962.3215              2975.7508              2978.2075
 Red. masses --      1.0546                 1.1049                 1.1076
 Frc consts  --      5.4525                 5.7648                 5.7882
 IR Inten    --    113.9037               116.1505                 0.0000

                     34                     35                     36
                     B2                     A1                     B2
 Frequencies --   3039.0044              3039.4967              3104.3748
 Red. masses --      1.0347                 1.0347                 1.1013
 Frc consts  --      5.6303                 5.6321                 6.2534
 IR Inten    --     31.9268                 7.3651                16.5047

                     37                     38                     39
                     A1                     A2                     B1
 Frequencies --   3104.6171              3109.4275              3109.6005
 Red. masses --      1.1012                 1.1032                 1.1031
 Frc consts  --      6.2536                 6.2844                 6.2843
 IR Inten    --     37.8442                 0.0000                57.1793

 - Thermochemistry -
 -------------------
 Temperature   298.150 Kelvin.  Pressure   1.00000 Atm.
 Atom     1 has atomic number  8 and mass  15.99491

 Molecular mass:    74.07317 amu.
 Principal axes and moments of inertia in atomic units:
                           1         2         3
     Eigenvalues --    99.42365 809.40598 863.86371
           X            0.00000   0.00000   1.00000
           Y            1.00000   0.00000   0.00000
           Z            0.00000   1.00000   0.00000
 This molecule is an asymmetric top.
 Rotational symmetry number  2.
 Rotational temperatures (Kelvin)      0.87116     0.10701     0.10026
 Rotational constants (GHZ):          18.15203     2.22971     2.08915
 Zero-point vibrational energy     357031.6 (Joules/Mol)
                                   85.33259 (Kcal/Mol)
 Warning -- explicit consideration of   7 degrees of freedom as
           vibrations may cause significant error
 Vibrational temperatures:    145.35   152.92   277.43   353.10   359.80
          (Kelvin)            626.01   629.31  1178.74  1194.69  1231.52
                             1357.07  1511.59  1576.44  1650.69  1682.40
                             1692.70  1723.66  1865.01  1872.82  1990.54
                             2023.94  2032.20  2082.24  2133.55  2133.86
                             2155.28  2159.14  2183.07  2206.45  4245.23
                             4262.12  4281.44  4284.98  4372.45  4373.16
                             4466.50  4466.85  4473.77  4474.02

 Zero-point correction=                           0.135986 (Hartree/Particle)
 Thermal correction to Energy=                    0.142840
 Thermal correction to Enthalpy=                  0.143784
 Thermal correction to Gibbs Free Energy=         0.106482
 Sum of electronic and zero-point Energies=           -233.628822
 Sum of electronic and thermal Energies=              -233.621968
 Sum of electronic and thermal Enthalpies=            -233.621023
 Sum of electronic and thermal Free Energies=         -233.658326

                     E (Thermal)             CV                S
                      KCal/Mol        Cal/Mol-Kelvin    Cal/Mol-Kelvin
 Total                   89.634             22.903             78.510
 Electronic               0.000              0.000              0.000
 Translational            0.889              2.981             38.823
 Rotational               0.889              2.981             24.367
 Vibrational             87.856             16.941             15.320
 Vibration     1          0.604              1.948              3.434
 Vibration     2          0.605              1.944              3.336
 Vibration     3          0.635              1.850              2.200
 Vibration     4          0.660              1.770              1.763
 Vibration     5          0.663              1.763              1.730
 Vibration     6          0.796              1.394              0.842
 Vibration     7          0.798              1.389              0.835

 Optimization completed.
    -- Stationary point found.
 Normal termination of Gaussian 16 at Tue Sep 12 11:36:12 2023.
