 Gaussian 16, Revision B.01,

 ---------------------------------------
 # b3lyp/gen opt freq CPHF(Grid=OneStep)
 ---------------------------------------

 ----------------------------
 diethyl ether, B3LYP/pcseg-2
 ----------------------------
 Symbolic Z-matrix:
 Charge =  0 Multiplicity = 1

 SCF Done:  E(RB3LYP) =  -233.764807777     A.U. after   11 cycles
 Optimization completed.
    -- Stationary point found.
 Normal termination of Gaussian 16 at Sun Oct  1 05:47:04 2023.

 ------------------------------------------------------------------
 #N Geom=AllCheck Guess=TCheck SCRF=Check GenChk RB3LYP/ChkBas Freq
 ------------------------------------------------------------------

 Structure from the checkpoint file:  "et2o.chk"
 ----------------------------
 diethyl ether, B3LYP/pcseg-2
 ----------------------------
 Charge =  0 Multiplicity = 1

 SCF Done:  E(RB3LYP) =  -233.764807777     A.U. after    1 cycles

  Exact polarizability:  50.597   0.000  67.988   0.000   0.000  54.044
 Approx polarizability:  71.628   0.000  76.321   0.000  -0.000  74.678

                      1                      2                      3
                     A2                     B1                     A1
 Frequencies --    101.0310               106.2872               192.8262
 Red. masses --      1.5754                 3.2238                 2.6886
 Frc consts  --      0.0095                 0.0215                 0.0589
 IR Inten    --      0.0000                 4.3768                 0.6804

                      4                      5                      6
                     A2                     B1                     B2
 Frequencies --    245.4194               250.0769               435.0951
 Red. masses --      1.1427                 1.1896                 2.5137
 Frc consts  --      0.0406                 0.0438                 0.2804
 IR Inten    --      0.0000                 1.3271                 2.7192

                      7                      8                      9
                     A1                     A2                     B1
 Frequencies --    437.3937               819.2588               830.3451
 Red. masses --      3.3560                 1.0801                 1.0919
 Frc consts  --      0.3783                 0.4271                 0.4436
 IR Inten    --      0.0259                 0.0000                 0.5642

                     10                     11                     12
                     A1                     B2                     A1
 Frequencies --    855.9494               943.2087              1050.6101
 Red. masses --      1.9226                 2.1272                 2.9718
 Frc consts  --      0.8299                 1.1150                 1.9326
 IR Inten    --      8.8193                 5.6518                12.7562

                     13                     14                     15
                     B2                     B2                     A2
 Frequencies --   1095.6753              1147.2862              1169.3267
 Red. masses --      2.1477                 5.3589                 1.4749
 Frc consts  --      1.5191                 4.1559                 1.1882
 IR Inten    --     15.9671               209.9123                 0.0000

                     16                     17                     18
                     A1                     B1                     A2
 Frequencies --   1176.4813              1198.0047              1296.2503
 Red. masses --      2.4213                 1.6161                 1.0917
 Frc consts  --      1.9745                 1.3666                 1.0808
 IR Inten    --     19.8290                11.0664                 0.0000

                     19                     20                     21
                     B1                     B2                     A1
 Frequencies --   1301.6790              1383.4949              1406.7121
 Red. masses --      1.1145                 1.2159                 1.2302
 Frc consts  --      1.1126                 1.3712                 1.4343
 IR Inten    --      4.2767                36.8509                 1.0468

                     22                     23                     24
                     B2                     A1                     A2
 Frequencies --   1412.4491              1447.2331              1482.8931
 Red. masses --      1.2818                 1.4635                 1.0395
 Frc consts  --      1.5067                 1.8060                 1.3468
 IR Inten    --     22.4505                 5.1584                 0.0000

                     25                     26                     27
                     B1                     B2                     A1
 Frequencies --   1483.1103              1497.9940              1500.6775
 Red. masses --      1.0388                 1.0483                 1.0470
 Frc consts  --      1.3462                 1.3859                 1.3892
 IR Inten    --     12.4430                 2.9111                 3.6042

                     28                     29                     30
                     B2                     A1                     B2
 Frequencies --   1517.3139              1533.5621              2950.5930
 Red. masses --      1.0864                 1.0898                 1.0541
 Frc consts  --      1.4736                 1.5101                 5.4069
 IR Inten    --      2.2484                 2.2682                10.9778

                     31                     32                     33
                     A1                     B1                     A2
 Frequencies --   2962.3236              2975.7507              2978.2156
 Red. masses --      1.0546                 1.1049                 1.1076
 Frc consts  --      5.4525                 5.7648                 5.7883
 IR Inten    --    113.9052               116.1415                 0.0000

                     34                     35                     36
                     B2                     A1                     B2
 Frequencies --   3039.0055              3039.4976              3104.3747
 Red. masses --      1.0347                 1.0347                 1.1013
 Frc consts  --      5.6303                 5.6321                 6.2534
 IR Inten    --     31.9324                 7.3644                16.5009

                     37                     38                     39
                     A1                     A2                     B1
 Frequencies --   3104.6169              3109.4254              3109.5984
 Red. masses --      1.1012                 1.1032                 1.1031
 Frc consts  --      6.2536                 6.2844                 6.2843
 IR Inten    --     37.8462                 0.0000                57.1801

 - Thermochemistry -
 -------------------
 Temperature   298.150 Kelvin.  Pressure   1.00000 Atm.
 Atom     1 has atomic number  8 and mass  15.99491

 Molecular mass:    74.07317 amu.
 Principal axes and moments of inertia in atomic units:
                           1         2         3
     Eigenvalues --    99.42368 809.40597 863.86372
           X            0.00000   0.00000   1.00000
           Y            1.00000   0.00000   0.00000
           Z            0.00000   1.00000   0.00000
 This molecule is an asymmetric top.
 Rotational symmetry number  2.
 Rotational temperatures (Kelvin)      0.87116     0.10701     0.10026
 Rotational constants (GHZ):          18.15203     2.22971     2.08915
 Zero-point vibrational energy     357031.7 (Joules/Mol)
                                   85.33263 (Kcal/Mol)
 Warning -- explicit consideration of   7 degrees of freedom as
           vibrations may cause significant error
 Vibrational temperatures:    145.36   152.92   277.43   353.10   359.80
          (Kelvin)            626.00   629.31  1178.73  1194.68  1231.52
                             1357.07  1511.59  1576.43  1650.69  1682.40
                             1692.69  1723.66  1865.02  1872.83  1990.54
                             2023.94  2032.20  2082.25  2133.55  2133.86
                             2155.28  2159.14  2183.08  2206.45  4245.25
                             4262.12  4281.44  4284.99  4372.45  4373.16
                             4466.50  4466.85  4473.77  4474.02

 Zero-point correction=                           0.135986 (Hartree/Particle)
 Thermal correction to Energy=                    0.142840
 Thermal correction to Enthalpy=                  0.143784
 Thermal correction to Gibbs Free Energy=         0.106482
 Sum of electronic and zero-point Energies=           -233.628822
 Sum of electronic and thermal Energies=              -233.621968
 Sum of electronic and thermal Enthalpies=            -233.621023
 Sum of electronic and thermal Free Energies=         -233.658326

                     E (Thermal)             CV                S
                      KCal/Mol        Cal/Mol-Kelvin    Cal/Mol-Kelvin
 Total                   89.634             22.903             78.510
 Electronic               0.000              0.000              0.000
 Translational            0.889              2.981             38.823
 Rotational               0.889              2.981             24.367
 Vibrational             87.856             16.941             15.319
 Vibration     1          0.604              1.948              3.434
 Vibration     2          0.605              1.944              3.336
 Vibration     3          0.635              1.850              2.200
 Vibration     4          0.660              1.770              1.763
 Vibration     5          0.663              1.763              1.730
 Vibration     6          0.796              1.394              0.842
 Vibration     7          0.798              1.389              0.835

 Optimization completed.
    -- Stationary point found.
 Normal termination of Gaussian 16 at Sun Oct  1 05:56:35 2023.
 Gaussian 16:  ES64L-G16RevB.01 20-Dec-2017

 ---------------------------------
 # rohf/gen geom=check guess=check
 ---------------------------------

 -------------------------------
 diethyl ether, ROHF/cc-pVTZ-F12
 -------------------------------
 Structure from the checkpoint file:  "et2o.chk"
 Charge =  0 Multiplicity = 1

                         Standard orientation:
 ---------------------------------------------------------------------
 Center     Atomic      Atomic             Coordinates (Angstroms)
 Number     Number       Type             X           Y           Z
 ---------------------------------------------------------------------
      1          8           0        0.000000    0.000000    0.259454
      2          6           0        0.000000    1.184462   -0.516903
      3          6           0       -0.000000   -1.184462   -0.516903
      4          6           0        0.000000    2.381494    0.411278
      5          6           0       -0.000000   -2.381494    0.411278
      6          1           0        0.884067    1.202078   -1.169008
      7          1           0       -0.884067    1.202078   -1.169008
      8          1           0        0.884067   -1.202078   -1.169008
      9          1           0       -0.884067   -1.202078   -1.169008
     10          1           0        0.000000    3.307346   -0.165280
     11          1           0       -0.000000   -3.307346   -0.165280
     12          1           0       -0.883274    2.372975    1.049615
     13          1           0        0.883274    2.372975    1.049615
     14          1           0        0.883274   -2.372975    1.049615
     15          1           0       -0.883274   -2.372975    1.049615
 ---------------------------------------------------------------------

 SCF Done:  E(ROHF) =  -232.247732937     A.U. after    9 cycles

 The electronic state is 1-A1.
 Alpha  occ. eigenvalues --  -20.54665 -11.27024 -11.27022 -11.21018 -11.21018
 Alpha  occ. eigenvalues --   -1.36821  -1.04053  -0.98261  -0.84155  -0.82530
 Alpha  occ. eigenvalues --   -0.67374  -0.66193  -0.60402  -0.59606  -0.54929
 Alpha  occ. eigenvalues --   -0.52952  -0.52091  -0.49334  -0.48640  -0.46955
 Alpha  occ. eigenvalues --   -0.41721
 Alpha virt. eigenvalues --    0.04650   0.05284   0.05681   0.06498   0.06930
 Alpha virt. eigenvalues --    0.07800   0.08730   0.10169   0.10298   0.10918
 Alpha virt. eigenvalues --    0.12611   0.13054   0.13354   0.17289   0.17578

 Mulliken charges and spin densities:
               1          2
     1  O   -0.545673   0.000000
     2  C    0.088307   0.000000
     3  C    0.088307   0.000000
     4  C   -0.269618   0.000000
     5  C   -0.269618   0.000000
     6  H    0.079216   0.000000
     7  H    0.079216   0.000000
     8  H    0.079216   0.000000
     9  H    0.079216   0.000000
    10  H    0.096876   0.000000
    11  H    0.096876   0.000000
    12  H    0.099420   0.000000
    13  H    0.099420   0.000000
    14  H    0.099420   0.000000
    15  H    0.099420   0.000000
 Sum of Mulliken charges =  -0.00000   0.00000

 Dipole moment (field-independent basis, Debye):
    X=             -0.0000    Y=             -0.0000    Z=             -1.2763  Tot=              1.2763
 Quadrupole moment (field-independent basis, Debye-Ang):
   XX=            -32.9747   YY=            -30.9303   ZZ=            -33.7831
   XY=              0.0000   XZ=             -0.0000   YZ=              0.0000

 Normal termination of Gaussian 16 at Sun Oct  1 05:58:14 2023.
