 Gaussian 16, Revision B.01,

 ---------------------------------------
 # b3lyp/gen opt freq CPHF(Grid=OneStep)
 ---------------------------------------

 ----------------------------
 ethyl formate, B3LYP/pcseg-2
 ----------------------------
 Symbolic Z-matrix:
 Charge =  0 Multiplicity = 1

 SCF Done:  E(RB3LYP) =  -268.499402873     A.U. after   13 cycles
 Optimization completed.
    -- Stationary point found.
 Normal termination of Gaussian 16 at Sat Sep 30 10:59:20 2023.

 ------------------------------------------------------------------
 #N Geom=AllCheck Guess=TCheck SCRF=Check GenChk RB3LYP/ChkBas Freq
 ------------------------------------------------------------------

 Structure from the checkpoint file:  "etfo.chk"
 ----------------------------
 ethyl formate, B3LYP/pcseg-2
 ----------------------------
 Charge =  0 Multiplicity = 1

 SCF Done:  E(RB3LYP) =  -268.499402873     A.U. after    1 cycles

  Exact polarizability:  54.778   1.248  44.371   0.000  -0.000  34.917
 Approx polarizability:  67.320  -4.705  64.413  -0.000   0.000  49.197

                      1                      2                      3
                     A"                     A'                     A"
 Frequencies --     58.1314               223.8078               233.9851
 Red. masses --      2.6463                 4.4898                 1.1196
 Frc consts  --      0.0053                 0.1325                 0.0361
 IR Inten    --      0.8281                 7.4367                 2.2667

                      4                      5                      6
                     A"                     A'                     A'
 Frequencies --    345.2069               380.0275               786.1662
 Red. masses --      2.1968                 3.2249                 6.5205
 Frc consts  --      0.1542                 0.2744                 2.3744
 IR Inten    --     21.8344                 5.0258                 0.7806

                      7                      8                      9
                     A"                     A'                     A'
 Frequencies --    813.5807               852.2518              1024.1690
 Red. masses --      1.0944                 2.7615                 2.5687
 Frc consts  --      0.4268                 1.1818                 1.5875
 IR Inten    --      0.6223                15.3482                22.2997

                     10                     11                     12
                     A"                     A'                     A"
 Frequencies --   1041.9326              1132.3852              1178.6499
 Red. masses --      1.6628                 2.1338                 1.5449
 Frc consts  --      1.0636                 1.6121                 1.2645
 IR Inten    --      0.0212                10.3973                 4.1017

                     13                     14                     15
                     A'                     A"                     A'
 Frequencies --   1204.1105              1298.5221              1397.0928
 Red. masses --      8.6299                 1.1006                 1.2767
 Frc consts  --      7.3721                 1.0934                 1.4682
 IR Inten    --    413.5881                 1.2310                 4.1051

                     16                     17                     18
                     A'                     A'                     A"
 Frequencies --   1401.1794              1425.6773              1486.6171
 Red. masses --      1.1435                 1.3278                 1.0382
 Frc consts  --      1.3227                 1.5901                 1.3519
 IR Inten    --      0.6382                11.7631                 6.8407

                     19                     20                     21
                     A'                     A'                     A'
 Frequencies --   1498.1914              1517.9505              1786.7297
 Red. masses --      1.0489                 1.0820                 9.4693
 Frc consts  --      1.3871                 1.4688                17.8110
 IR Inten    --      2.7556                 8.0204               345.1860

                     22                     23                     24
                     A'                     A'                     A'
 Frequencies --   3033.5980              3043.7832              3058.1635
 Red. masses --      1.0898                 1.0350                 1.0578
 Frc consts  --      5.9092                 5.6496                 5.8288
 IR Inten    --     59.8660                14.0306                10.8930

                     25                     26                     27
                     A"                     A'                     A"
 Frequencies --   3092.7931              3110.0581              3121.0149
 Red. masses --      1.1071                 1.1007                 1.1055
 Frc consts  --      6.2391                 6.2726                 6.3447
 IR Inten    --      2.0721                20.9506                33.9439

 - Thermochemistry -
 -------------------
 Temperature   298.150 Kelvin.  Pressure   1.00000 Atm.
 Atom     1 has atomic number  6 and mass  12.00000

 Molecular mass:    74.03678 amu.
 Principal axes and moments of inertia in atomic units:
                           1         2         3
     Eigenvalues --    99.51581 629.91162 707.01726
           X            0.99349  -0.11396   0.00000
           Y            0.11396   0.99349   0.00000
           Z            0.00000   0.00000   1.00000
 This molecule is an asymmetric top.
 Rotational symmetry number  1.
 Rotational temperatures (Kelvin)      0.87035     0.13750     0.12251
 Rotational constants (GHZ):          18.13522     2.86507     2.55261
 Zero-point vibrational energy     236536.3 (Joules/Mol)
                                   56.53352 (Kcal/Mol)
 Warning -- explicit consideration of   5 degrees of freedom as
           vibrations may cause significant error
 Vibrational temperatures:     83.64   322.01   336.65   496.68   546.77
          (Kelvin)           1131.12  1170.56  1226.20  1473.55  1499.11
                             1629.25  1695.81  1732.45  1868.28  2010.10
                             2015.98  2051.23  2138.91  2155.56  2183.99
                             2570.71  4364.67  4379.33  4400.02  4449.84
                             4474.68  4490.44

 Zero-point correction=                           0.090092 (Hartree/Particle)
 Thermal correction to Energy=                    0.095864
 Thermal correction to Enthalpy=                  0.096808
 Thermal correction to Gibbs Free Energy=         0.060865
 Sum of electronic and zero-point Energies=           -268.409311
 Sum of electronic and thermal Energies=              -268.403539
 Sum of electronic and thermal Enthalpies=            -268.402594
 Sum of electronic and thermal Free Energies=         -268.438538

                     E (Thermal)             CV                S
                      KCal/Mol        Cal/Mol-Kelvin    Cal/Mol-Kelvin
 Total                   60.156             18.568             75.649
 Electronic               0.000              0.000              0.000
 Translational            0.889              2.981             38.822
 Rotational               0.889              2.981             25.297
 Vibrational             58.378             12.606             11.530
 Vibration     1          0.596              1.974              4.520
 Vibration     2          0.649              1.805              1.928
 Vibration     3          0.654              1.789              1.848
 Vibration     4          0.724              1.585              1.188
 Vibration     5          0.750              1.513              1.039

 Optimization completed.
    -- Stationary point found.
 Normal termination of Gaussian 16 at Sat Sep 30 11:05:48 2023.
 Gaussian 16:  ES64L-G16RevB.01 20-Dec-2017

 ---------------------------------
 # rohf/gen geom=check guess=check
 ---------------------------------

 -------------------------------
 ethyl formate, ROHF/cc-pVTZ-F12
 -------------------------------
 Structure from the checkpoint file:  "etfo.chk"
 Charge =  0 Multiplicity = 1

                         Standard orientation:
 ---------------------------------------------------------------------
 Center     Atomic      Atomic             Coordinates (Angstroms)
 Number     Number       Type             X           Y           Z
 ---------------------------------------------------------------------
      1          6           0       -2.183608   -0.287728    0.000000
      2          6           0       -0.700967   -0.578865    0.000000
      3          8           0        0.000000    0.691553    0.000000
      4          6           0        1.335628    0.637886    0.000000
      5          8           0        2.003089   -0.358865    0.000000
      6          1           0       -2.740457   -1.225192    0.000000
      7          1           0       -2.471015    0.280527    0.884023
      8          1           0       -2.471015    0.280527   -0.884023
      9          1           0       -0.392899   -1.142004   -0.880451
     10          1           0       -0.392899   -1.142004    0.880451
     11          1           0        1.737252    1.658883    0.000000
 ---------------------------------------------------------------------

 SCF Done:  E(ROHF) =  -266.948632389     A.U. after   12 cycles

 The electronic state is 1-A'.
 Alpha  occ. eigenvalues --  -20.60729 -20.55218 -11.38066 -11.29475 -11.22873
 Alpha  occ. eigenvalues --   -1.46410  -1.36807  -1.04986  -0.89831  -0.80742
 Alpha  occ. eigenvalues --   -0.73088  -0.68592  -0.68001  -0.59003  -0.57807
 Alpha  occ. eigenvalues --   -0.55638  -0.51930  -0.51764  -0.46543  -0.46114
 Alpha virt. eigenvalues --    0.04441   0.05214   0.06108   0.06177   0.07760
 Alpha virt. eigenvalues --    0.08463   0.08653   0.10466   0.10592   0.12121
 Alpha virt. eigenvalues --    0.15674   0.16477   0.17024   0.18734   0.18847

 Mulliken charges and spin densities:
               1          2
     1  C   -0.260324   0.000000
     2  C    0.084147   0.000000
     3  O   -0.438998   0.000000
     4  C    0.486904   0.000000
     5  O   -0.567461   0.000000
     6  H    0.103063   0.000000
     7  H    0.098720   0.000000
     8  H    0.098720   0.000000
     9  H    0.116955   0.000000
    10  H    0.116955   0.000000
    11  H    0.161319   0.000000
 Sum of Mulliken charges =  -0.00000   0.00000

 Dipole moment (field-independent basis, Debye):
    X=             -2.1907    Y=              0.7629    Z=              0.0000  Tot=              2.3197
 Quadrupole moment (field-independent basis, Debye-Ang):
   XX=            -33.9563   YY=            -29.1621   ZZ=            -29.4227
   XY=              5.5803   XZ=             -0.0000   YZ=             -0.0000

 Normal termination of Gaussian 16 at Sat Sep 30 11:08:26 2023.
