 Gaussian 16, Revision B.01,
 Gaussian 16:  ES64L-G16RevB.01 20-Dec-2017

 --------------------
 # b3lyp/gen opt freq
 --------------------

 ----------------------------
 ethyl formate, B3LYP/pcseg-2
 ----------------------------
 Symbolic Z-matrix:
 Charge =  0 Multiplicity = 1

 SCF Done:  E(RB3LYP) =  -268.499380308     A.U. after   13 cycles
 SCF Done:  E(RB3LYP) =  -268.499402108     A.U. after    8 cycles
 SCF Done:  E(RB3LYP) =  -268.499402872     A.U. after    7 cycles
 Optimization completed.
    -- Stationary point found.
 Normal termination of Gaussian 16 at Sat Jun 18 10:49:49 2022.

 ------------------------------------------------------------------
 #N Geom=AllCheck Guess=TCheck SCRF=Check GenChk RB3LYP/ChkBas Freq
 ------------------------------------------------------------------

 Structure from the checkpoint file:  "/wrk/irikura/Gau-22795.chk"
 ----------------------------
 ethyl formate, B3LYP/pcseg-2
 ----------------------------
 Charge =  0 Multiplicity = 1

                         Standard orientation:
 ---------------------------------------------------------------------
 Center     Atomic      Atomic             Coordinates (Angstroms)
 Number     Number       Type             X           Y           Z
 ---------------------------------------------------------------------
      1          6           0       -2.183608   -0.287728    0.000000
      2          6           0       -0.700967   -0.578865    0.000000
      3          8           0        0.000000    0.691553    0.000000
      4          6           0        1.335628    0.637886    0.000000
      5          8           0        2.003089   -0.358865    0.000000
      6          1           0       -2.740457   -1.225192    0.000000
      7          1           0       -2.471015    0.280527    0.884023
      8          1           0       -2.471015    0.280527   -0.884023
      9          1           0       -0.392899   -1.142004   -0.880451
     10          1           0       -0.392899   -1.142004    0.880451
     11          1           0        1.737252    1.658883    0.000000
 ---------------------------------------------------------------------

 SCF Done:  E(RB3LYP) =  -268.499402872     A.U. after    1 cycles

 The electronic state is 1-A'.
 Alpha  occ. eigenvalues --  -19.17977 -19.12287 -10.30641 -10.23967 -10.17814
 Alpha  occ. eigenvalues --   -1.11627  -1.03274  -0.78962  -0.67320  -0.59371
 Alpha  occ. eigenvalues --   -0.53814  -0.50613  -0.48154  -0.43379  -0.41670
 Alpha  occ. eigenvalues --   -0.40814  -0.37572  -0.36695  -0.32003  -0.29483
 Alpha virt. eigenvalues --   -0.01034   0.01258   0.04118   0.04812   0.05717
 Alpha virt. eigenvalues --    0.06923   0.08766   0.09693   0.12347   0.14846
 Alpha virt. eigenvalues --    0.15900   0.16341   0.18870   0.19456   0.24429

 Mulliken charges:
               1
     1  C   -0.047807
     2  C    0.190032
     3  O   -0.377567
     4  C    0.447777
     5  O   -0.414231
     6  H    0.026332
     7  H    0.032234
     8  H    0.032234
     9  H    0.040021
    10  H    0.040021
    11  H    0.030954
 Sum of Mulliken charges =  -0.00000

 Dipole moment (field-independent basis, Debye):
    X=             -2.1884    Y=              0.5413    Z=              0.0000  Tot=              2.2543
 Quadrupole moment (field-independent basis, Debye-Ang):
   XX=            -33.8457   YY=            -29.7271   ZZ=            -29.6233
   XY=              5.0046   XZ=             -0.0000   YZ=              0.0000

  Exact polarizability:  54.778   1.248  44.371   0.000  -0.000  34.918
 Approx polarizability:  67.320  -4.705  64.413   0.000   0.000  49.197

                      1                      2                      3
                     A"                     A'                     A"
 Frequencies --     58.1335               223.8062               233.9809
 Red. masses --      2.6463                 4.4898                 1.1196
 Frc consts  --      0.0053                 0.1325                 0.0361
 IR Inten    --      0.8282                 7.4375                 2.2666

                      4                      5                      6
                     A"                     A'                     A'
 Frequencies --    345.2080               380.0273               786.1634
 Red. masses --      2.1968                 3.2249                 6.5204
 Frc consts  --      0.1542                 0.2744                 2.3744
 IR Inten    --     21.8342                 5.0250                 0.7805

                      7                      8                      9
                     A"                     A'                     A'
 Frequencies --    813.5830               852.2537              1024.1634
 Red. masses --      1.0944                 2.7616                 2.5687
 Frc consts  --      0.4268                 1.1818                 1.5874
 IR Inten    --      0.6223                15.3496                22.3009

                     10                     11                     12
                     A"                     A'                     A"
 Frequencies --   1041.9327              1132.3941              1178.6480
 Red. masses --      1.6628                 2.1337                 1.5449
 Frc consts  --      1.0636                 1.6121                 1.2645
 IR Inten    --      0.0212                10.3928                 4.1018

                     13                     14                     15
                     A'                     A"                     A'
 Frequencies --   1204.1076              1298.5204              1397.0914
 Red. masses --      8.6300                 1.1006                 1.2767
 Frc consts  --      7.3721                 1.0934                 1.4682
 IR Inten    --    413.5821                 1.2309                 4.1053

                     16                     17                     18
                     A'                     A'                     A"
 Frequencies --   1401.1794              1425.6747              1486.6150
 Red. masses --      1.1435                 1.3278                 1.0382
 Frc consts  --      1.3227                 1.5901                 1.3519
 IR Inten    --      0.6384                11.7649                 6.8403

                     19                     20                     21
                     A'                     A'                     A'
 Frequencies --   1498.1915              1517.9503              1786.7257
 Red. masses --      1.0489                 1.0820                 9.4693
 Frc consts  --      1.3871                 1.4688                17.8108
 IR Inten    --      2.7549                 8.0208               345.1720

                     22                     23                     24
                     A'                     A'                     A'
 Frequencies --   3033.5996              3043.7823              3058.1657
 Red. masses --      1.0898                 1.0350                 1.0578
 Frc consts  --      5.9092                 5.6496                 5.8288
 IR Inten    --     59.8696                14.0319                10.8938

                     25                     26                     27
                     A"                     A'                     A"
 Frequencies --   3092.7946              3110.0626              3121.0136
 Red. masses --      1.1071                 1.1007                 1.1055
 Frc consts  --      6.2391                 6.2726                 6.3447
 IR Inten    --      2.0697                20.9497                33.9482

 - Thermochemistry -
 -------------------
 Temperature   298.150 Kelvin.  Pressure   1.00000 Atm.
 Atom     1 has atomic number  6 and mass  12.00000

 Molecular mass:    74.03678 amu.
 Principal axes and moments of inertia in atomic units:
                           1         2         3
     Eigenvalues --    99.51582 629.91166 707.01731
           X            0.99349  -0.11396   0.00000
           Y            0.11396   0.99349   0.00000
           Z            0.00000  -0.00000   1.00000
 This molecule is an asymmetric top.
 Rotational symmetry number  1.
 Rotational temperatures (Kelvin)      0.87035     0.13750     0.12251
 Rotational constants (GHZ):          18.13522     2.86507     2.55261
 Zero-point vibrational energy     236536.2 (Joules/Mol)
                                   56.53351 (Kcal/Mol)
 Warning -- explicit consideration of   5 degrees of freedom as
           vibrations may cause significant error
 Vibrational temperatures:     83.64   322.01   336.65   496.68   546.77
          (Kelvin)           1131.11  1170.56  1226.20  1473.54  1499.11
                             1629.26  1695.81  1732.44  1868.28  2010.10
                             2015.98  2051.23  2138.91  2155.56  2183.99
                             2570.70  4364.67  4379.32  4400.02  4449.84
                             4474.69  4490.44

 Zero-point correction=                           0.090092 (Hartree/Particle)
 Thermal correction to Energy=                    0.095864
 Thermal correction to Enthalpy=                  0.096808
 Thermal correction to Gibbs Free Energy=         0.060865
 Sum of electronic and zero-point Energies=           -268.409311
 Sum of electronic and thermal Energies=              -268.403539
 Sum of electronic and thermal Enthalpies=            -268.402594
 Sum of electronic and thermal Free Energies=         -268.438538

                     E (Thermal)             CV                S
                      KCal/Mol        Cal/Mol-Kelvin    Cal/Mol-Kelvin
 Total                   60.156             18.568             75.649
 Electronic               0.000              0.000              0.000
 Translational            0.889              2.981             38.822
 Rotational               0.889              2.981             25.297
 Vibrational             58.378             12.606             11.530
 Vibration     1          0.596              1.974              4.520
 Vibration     2          0.649              1.805              1.928
 Vibration     3          0.654              1.789              1.848
 Vibration     4          0.724              1.585              1.188
 Vibration     5          0.750              1.513              1.039

 Optimization completed.
    -- Stationary point found.
 Normal termination of Gaussian 16 at Sat Jun 18 10:54:05 2022.
