 Gaussian 16, Revision B.01,
 Gaussian 16:  ES64L-G16RevB.01 20-Dec-2017

 --------------------
 # b3lyp/gen opt freq
 --------------------

 -------------------------------
 ethanol geom opt, B3LYP/pcseg-2
 -------------------------------
 Symbolic Z-matrix:
 Charge =  0 Multiplicity = 1

 SCF Done:  E(RB3LYP) =  -155.113259994     A.U. after   12 cycles
 SCF Done:  E(RB3LYP) =  -155.113414321     A.U. after    9 cycles
 SCF Done:  E(RB3LYP) =  -155.113424112     A.U. after    7 cycles
 SCF Done:  E(RB3LYP) =  -155.113425599     A.U. after    6 cycles
 Optimization completed.
    -- Stationary point found.
 Normal termination of Gaussian 16 at Thu Feb 24 11:05:13 2022.

 ------------------------------------------------------------------
 #N Geom=AllCheck Guess=TCheck SCRF=Check GenChk RB3LYP/ChkBas Freq
 ------------------------------------------------------------------

 Structure from the checkpoint file:  "ethanol.chk"
 -------------------------------
 ethanol geom opt, B3LYP/pcseg-2
 -------------------------------
 Charge =  0 Multiplicity = 1

                         Standard orientation:
 ---------------------------------------------------------------------
 Center     Atomic      Atomic             Coordinates (Angstroms)
 Number     Number       Type             X           Y           Z
 ---------------------------------------------------------------------
      1          6           0        1.176458   -0.399722    0.000000
      2          6           0        0.000000    0.553284    0.000000
      3          8           0       -1.199837   -0.221095    0.000000
      4          1           0       -1.955748    0.370364    0.000000
      5          1           0        2.115389    0.155312    0.000000
      6          1           0        1.152597   -1.037863    0.883257
      7          1           0        1.152597   -1.037863   -0.883257
      8          1           0        0.037553    1.198719    0.884794
      9          1           0        0.037553    1.198719   -0.884794
 ---------------------------------------------------------------------

 SCF Done:  E(RB3LYP) =  -155.113425599     A.U. after    1 cycles

 The electronic state is 1-A'.
 Alpha  occ. eigenvalues --  -19.12205 -10.21917 -10.16003  -1.02070  -0.75270
 Alpha  occ. eigenvalues --   -0.61447  -0.52184  -0.46960  -0.40738  -0.38746
 Alpha  occ. eigenvalues --   -0.36999  -0.33820  -0.27973
 Alpha virt. eigenvalues --    0.00839   0.03388   0.05790   0.06097   0.08301
 Alpha virt. eigenvalues --    0.10487   0.13403   0.15580   0.16396   0.18535
 Alpha virt. eigenvalues --    0.22322   0.25421   0.28703   0.29872   0.32670

 Mulliken charges:
               1
     1  C   -0.044062
     2  C    0.199556
     3  O   -0.412665
     4  H    0.178557
     5  H    0.012876
     6  H    0.027947
     7  H    0.027947
     8  H    0.004923
     9  H    0.004923
 Sum of Mulliken charges =   0.00000

 Dipole moment (field-independent basis, Debye):
    X=              0.1124    Y=              1.6254    Z=             -0.0000  Tot=              1.6293
 Quadrupole moment (field-independent basis, Debye-Ang):
   XX=            -18.0083   YY=            -20.3203   ZZ=            -20.3890
   XY=             -2.4365   XZ=             -0.0000   YZ=              0.0000

  Exact polarizability:  34.901  -1.014  31.406  -0.000   0.000  28.873
 Approx polarizability:  42.711   0.190  41.215   0.000   0.000  38.695

                      1                      2                      3
                     A"                     A"                     A'
 Frequencies --    232.8887               272.5315               417.8668
 Red. masses --      1.1534                 1.0676                 2.6335
 Frc consts  --      0.0369                 0.0467                 0.2709
 IR Inten    --     59.7433                63.4436                11.2119

                      4                      5                      6
                     A"                     A'                     A'
 Frequencies --    821.0679               897.0524              1030.5164
 Red. masses --      1.0828                 2.2810                 2.2851
 Frc consts  --      0.4301                 1.0815                 1.4298
 IR Inten    --      0.1292                13.8671                67.6771

                      7                      8                      9
                     A'                     A"                     A'
 Frequencies --   1099.5434              1178.7025              1265.3382
 Red. masses --      2.1535                 1.5064                 1.2518
 Frc consts  --      1.5339                 1.2331                 1.1809
 IR Inten    --     24.5535                 3.5096                67.7020

                     10                     11                     12
                     A"                     A'                     A'
 Frequencies --   1298.7229              1406.0547              1448.7448
 Red. masses --      1.1156                 1.2296                 1.4173
 Frc consts  --      1.1086                 1.4322                 1.7527
 IR Inten    --      0.0157                 1.5813                11.9998

                     13                     14                     15
                     A"                     A'                     A'
 Frequencies --   1481.5262              1499.2179              1526.6368
 Red. masses --      1.0387                 1.0477                 1.0887
 Frc consts  --      1.3433                 1.3875                 1.4950
 IR Inten    --      6.1225                 2.9946                 1.4773

                     16                     17                     18
                     A'                     A"                     A'
 Frequencies --   2982.3548              3006.4556              3038.7857
 Red. masses --      1.0550                 1.1077                 1.0347
 Frc consts  --      5.5287                 5.8991                 5.6293
 IR Inten    --     67.6655                49.3972                16.0797

                     19                     20                     21
                     A'                     A"                     A'
 Frequencies --   3104.4821              3109.4385              3839.6555
 Red. masses --      1.1012                 1.1033                 1.0665
 Frc consts  --      6.2534                 6.2849                 9.2642
 IR Inten    --     27.8629                31.2862                28.2359

 - Thermochemistry -
 -------------------
 Temperature   298.150 Kelvin.  Pressure   1.00000 Atm.
 Atom     1 has atomic number  6 and mass  12.00000

 Molecular mass:    46.04186 amu.
 Principal axes and moments of inertia in atomic units:
                           1         2         3
     Eigenvalues --    51.05749 193.31597 221.87243
           X            0.99446   0.10514   0.00000
           Y           -0.10514   0.99446   0.00000
           Z           -0.00000   0.00000   1.00000
 This molecule is an asymmetric top.
 Rotational symmetry number  1.
 Rotational temperatures (Kelvin)      1.69640     0.44804     0.39038
 Rotational constants (GHZ):          35.34724     9.33571     8.13414
 Zero-point vibrational energy     209092.8 (Joules/Mol)
                                   49.97437 (Kcal/Mol)
 Warning -- explicit consideration of   3 degrees of freedom as
           vibrations may cause significant error
 Vibrational temperatures:    335.07   392.11   601.22  1181.33  1290.66
          (Kelvin)           1482.68  1582.00  1695.89  1820.54  1868.57
                             2023.00  2084.42  2131.59  2157.04  2196.49
                             4290.94  4325.62  4372.13  4466.66  4473.79
                             5524.41

 Zero-point correction=                           0.079639 (Hartree/Particle)
 Thermal correction to Energy=                    0.083986
 Thermal correction to Enthalpy=                  0.084930
 Thermal correction to Gibbs Free Energy=         0.054189
 Sum of electronic and zero-point Energies=           -155.033786
 Sum of electronic and thermal Energies=              -155.029440
 Sum of electronic and thermal Enthalpies=            -155.028495
 Sum of electronic and thermal Free Energies=         -155.059236

                     E (Thermal)             CV                S
                      KCal/Mol        Cal/Mol-Kelvin    Cal/Mol-Kelvin
 Total                   52.702             13.605             64.699
 Electronic               0.000              0.000              0.000
 Translational            0.889              2.981             37.406
 Rotational               0.889              2.981             22.309
 Vibrational             50.925              7.643              4.985
 Vibration     1          0.654              1.791              1.857
 Vibration     2          0.676              1.724              1.580
 Vibration     3          0.781              1.431              0.899

 Optimization completed.
    -- Stationary point found.
 Normal termination of Gaussian 16 at Thu Feb 24 11:08:35 2022.
