 Gaussian 16, Revision B.01,

 ---------------------------------------
 # b3lyp/gen opt freq CPHF(Grid=OneStep)
 ---------------------------------------

 -------------------------------
 ethanol geom opt, B3LYP/pcseg-2
 -------------------------------
 Symbolic Z-matrix:
 Charge =  0 Multiplicity = 1

 SCF Done:  E(RB3LYP) =  -155.113425599     A.U. after   12 cycles
 Optimization completed.
    -- Stationary point found.
 Normal termination of Gaussian 16 at Fri Sep 29 18:11:33 2023.

 ------------------------------------------------------------------
 #N Geom=AllCheck Guess=TCheck SCRF=Check GenChk RB3LYP/ChkBas Freq
 ------------------------------------------------------------------

 Structure from the checkpoint file:  "ethanol.chk"
 -------------------------------
 ethanol geom opt, B3LYP/pcseg-2
 -------------------------------
 Charge =  0 Multiplicity = 1

 SCF Done:  E(RB3LYP) =  -155.113425599     A.U. after    1 cycles

  Exact polarizability:  34.901  -1.014  31.406  -0.000   0.000  28.873
 Approx polarizability:  42.711   0.190  41.215  -0.000   0.000  38.695

                      1                      2                      3
                     A"                     A"                     A'
 Frequencies --    232.8686               272.5027               417.8626
 Red. masses --      1.1534                 1.0676                 2.6335
 Frc consts  --      0.0369                 0.0467                 0.2709
 IR Inten    --     59.8459                63.3384                11.2131

                      4                      5                      6
                     A"                     A'                     A'
 Frequencies --    821.0661               897.0528              1030.5144
 Red. masses --      1.0828                 2.2810                 2.2851
 Frc consts  --      0.4301                 1.0815                 1.4297
 IR Inten    --      0.1293                13.8668                67.6769

                      7                      8                      9
                     A'                     A"                     A'
 Frequencies --   1099.5422              1178.7036              1265.3373
 Red. masses --      2.1535                 1.5064                 1.2518
 Frc consts  --      1.5340                 1.2331                 1.1809
 IR Inten    --     24.5568                 3.5099                67.7019

                     10                     11                     12
                     A"                     A'                     A'
 Frequencies --   1298.7244              1406.0582              1448.7473
 Red. masses --      1.1156                 1.2296                 1.4173
 Frc consts  --      1.1086                 1.4322                 1.7527
 IR Inten    --      0.0157                 1.5808                12.0001

                     13                     14                     15
                     A"                     A'                     A'
 Frequencies --   1481.5275              1499.2192              1526.6390
 Red. masses --      1.0387                 1.0477                 1.0887
 Frc consts  --      1.3433                 1.3875                 1.4950
 IR Inten    --      6.1221                 2.9945                 1.4773

                     16                     17                     18
                     A'                     A"                     A'
 Frequencies --   2982.3506              3006.4495              3038.7823
 Red. masses --      1.0550                 1.1077                 1.0347
 Frc consts  --      5.5287                 5.8991                 5.6293
 IR Inten    --     67.6656                49.3962                16.0815

                     19                     20                     21
                     A'                     A"                     A'
 Frequencies --   3104.4776              3109.4311              3839.6663
 Red. masses --      1.1012                 1.1033                 1.0665
 Frc consts  --      6.2533                 6.2849                 9.2642
 IR Inten    --     27.8627                31.2872                28.2363

 - Thermochemistry -
 -------------------
 Temperature   298.150 Kelvin.  Pressure   1.00000 Atm.
 Atom     1 has atomic number  6 and mass  12.00000

 Molecular mass:    46.04186 amu.
 Principal axes and moments of inertia in atomic units:
                           1         2         3
     Eigenvalues --    51.05749 193.31598 221.87242
           X            0.99446   0.10514   0.00000
           Y           -0.10514   0.99446   0.00000
           Z           -0.00000   0.00000   1.00000
 This molecule is an asymmetric top.
 Rotational symmetry number  1.
 Rotational temperatures (Kelvin)      1.69640     0.44804     0.39038
 Rotational constants (GHZ):          35.34724     9.33571     8.13414
 Zero-point vibrational energy     209092.4 (Joules/Mol)
                                   49.97429 (Kcal/Mol)
 Warning -- explicit consideration of   3 degrees of freedom as
           vibrations may cause significant error
 Vibrational temperatures:    335.05   392.07   601.21  1181.33  1290.66
          (Kelvin)           1482.68  1582.00  1695.89  1820.54  1868.57
                             2023.00  2084.42  2131.59  2157.04  2196.49
                             4290.94  4325.61  4372.13  4466.65  4473.78
                             5524.42

 Zero-point correction=                           0.079639 (Hartree/Particle)
 Thermal correction to Energy=                    0.083986
 Thermal correction to Enthalpy=                  0.084930
 Thermal correction to Gibbs Free Energy=         0.054189
 Sum of electronic and zero-point Energies=           -155.033787
 Sum of electronic and thermal Energies=              -155.029440
 Sum of electronic and thermal Enthalpies=            -155.028495
 Sum of electronic and thermal Free Energies=         -155.059236

                     E (Thermal)             CV                S
                      KCal/Mol        Cal/Mol-Kelvin    Cal/Mol-Kelvin
 Total                   52.702             13.605             64.700
 Electronic               0.000              0.000              0.000
 Translational            0.889              2.981             37.406
 Rotational               0.889              2.981             22.309
 Vibrational             50.925              7.643              4.985
 Vibration     1          0.654              1.791              1.857
 Vibration     2          0.676              1.724              1.580
 Vibration     3          0.781              1.431              0.899

 Optimization completed.
    -- Stationary point found.
 Normal termination of Gaussian 16 at Fri Sep 29 18:14:10 2023.
 Gaussian 16:  ES64L-G16RevB.01 20-Dec-2017

 ---------------------------------
 # rohf/gen geom=check guess=check
 ---------------------------------

 ----------------------------------
 ethanol geom opt, ROHF/cc-pVTZ-F12
 ----------------------------------
 Structure from the checkpoint file:  "ethanol.chk"
 Charge =  0 Multiplicity = 1

                         Standard orientation:
 ---------------------------------------------------------------------
 Center     Atomic      Atomic             Coordinates (Angstroms)
 Number     Number       Type             X           Y           Z
 ---------------------------------------------------------------------
      1          6           0        1.176458   -0.399721    0.000000
      2          6           0        0.000000    0.553284    0.000000
      3          8           0       -1.199837   -0.221096    0.000000
      4          1           0       -1.955748    0.370363    0.000000
      5          1           0        2.115389    0.155313    0.000000
      6          1           0        1.152598   -1.037862    0.883257
      7          1           0        1.152598   -1.037862   -0.883257
      8          1           0        0.037553    1.198719    0.884794
      9          1           0        0.037553    1.198719   -0.884794
 ---------------------------------------------------------------------

 SCF Done:  E(ROHF) =  -154.154067307     A.U. after   10 cycles

 The electronic state is 1-A'.
 Alpha  occ. eigenvalues --  -20.55259 -11.27437 -11.21125  -1.35447  -1.01246
 Alpha  occ. eigenvalues --   -0.83486  -0.69841  -0.64443  -0.57063  -0.53353
 Alpha  occ. eigenvalues --   -0.52564  -0.48901  -0.44272
 Alpha virt. eigenvalues --    0.04717   0.05596   0.07094   0.07191   0.09575
 Alpha virt. eigenvalues --    0.09658   0.10255   0.15759   0.17174   0.18101
 Alpha virt. eigenvalues --    0.19346   0.22315   0.23549   0.24910   0.24925

 Mulliken charges and spin densities:
               1          2
     1  C   -0.267842   0.000000
     2  C    0.165783   0.000000
     3  O   -0.718376   0.000000
     4  H    0.398541   0.000000
     5  H    0.083023   0.000000
     6  H    0.099060   0.000000
     7  H    0.099060   0.000000
     8  H    0.070375   0.000000
     9  H    0.070375   0.000000
 Sum of Mulliken charges =  -0.00000   0.00000

 Dipole moment (field-independent basis, Debye):
    X=              0.1791    Y=              1.7071    Z=             -0.0000  Tot=              1.7165
 Quadrupole moment (field-independent basis, Debye-Ang):
   XX=            -17.9239   YY=            -20.0552   ZZ=            -20.1591
   XY=             -2.5304   XZ=             -0.0000   YZ=             -0.0000

 Normal termination of Gaussian 16 at Fri Sep 29 18:14:49 2023.
