 Gaussian 16, Revision B.01,

 ---------------------------------------
 # b3lyp/gen opt freq CPHF(Grid=OneStep)
 ---------------------------------------

 ---------------------------------
 ethyl methyl amine, B3LYP/pcseg-2
 ---------------------------------
 Symbolic Z-matrix:
 Charge =  0 Multiplicity = 1

 SCF Done:  E(RB3LYP) =  -174.557421569     A.U. after   11 cycles
 Optimization completed.
    -- Stationary point found.
 Normal termination of Gaussian 16 at Thu Sep 28 15:18:38 2023.

 ------------------------------------------------------------------
 #N Geom=AllCheck Guess=TCheck SCRF=Check GenChk RB3LYP/ChkBas Freq
 ------------------------------------------------------------------

 Structure from the checkpoint file:  "EtNHMe.chk"
 ---------------------------------
 ethyl methyl amine, B3LYP/pcseg-2
 ---------------------------------
 Charge =  0 Multiplicity = 1

 SCF Done:  E(RB3LYP) =  -174.557421569     A.U. after    1 cycles

  Exact polarizability:  57.289   0.439  46.569   0.357   1.001  43.924
 Approx polarizability:  65.557  -0.044  65.181   0.125   0.711  62.182

                      1                      2                      3
                      A                      A                      A
 Frequencies --    121.4931               220.9974               264.9340
 Red. masses --      2.1921                 1.0419                 1.3043
 Frc consts  --      0.0191                 0.0300                 0.0539
 IR Inten    --      1.6152                 0.4498                 0.8429

                      4                      5                      6
                      A                      A                      A
 Frequencies --    275.1036               450.9370               748.8090
 Red. masses --      1.9439                 2.7787                 1.3479
 Frc consts  --      0.0867                 0.3329                 0.4453
 IR Inten    --      2.7676                 0.7754                95.1724

                      7                      8                      9
                      A                      A                      A
 Frequencies --    819.8708               888.1800              1022.5241
 Red. masses --      1.1204                 1.5351                 2.5321
 Frc consts  --      0.4437                 0.7135                 1.5598
 IR Inten    --      0.5964                 2.8345                 8.8438

                     10                     11                     12
                      A                      A                      A
 Frequencies --   1056.4535              1112.1048              1143.4047
 Red. masses --      1.4199                 1.3423                 3.3655
 Frc consts  --      0.9337                 0.9781                 2.5924
 IR Inten    --      4.3615                 2.3380                35.4224

                     13                     14                     15
                      A                      A                      A
 Frequencies --   1186.0856              1240.2130              1303.2874
 Red. masses --      1.7893                 1.8635                 1.1637
 Frc consts  --      1.4831                 1.6888                 1.1645
 IR Inten    --     18.6147                 2.1702                 5.1563

                     16                     17                     18
                      A                      A                      A
 Frequencies --   1386.9748              1414.0277              1458.1827
 Red. masses --      1.3007                 1.2916                 1.1749
 Frc consts  --      1.4742                 1.5216                 1.4719
 IR Inten    --      7.7355                10.3085                 0.3567

                     19                     20                     21
                      A                      A                      A
 Frequencies --   1479.5903              1487.3695              1497.4532
 Red. masses --      1.1290                 1.0486                 1.0386
 Frc consts  --      1.4562                 1.3668                 1.3722
 IR Inten    --     14.7843                 2.5105                 7.0856

                     22                     23                     24
                      A                      A                      A
 Frequencies --   1498.4212              1517.2299              1523.8947
 Red. masses --      1.1005                 1.0715                 1.0859
 Frc consts  --      1.4558                 1.4532                 1.4858
 IR Inten    --      4.5393                14.3895                 1.9442

                     25                     26                     27
                      A                      A                      A
 Frequencies --   2905.2497              2931.1413              3023.6470
 Red. masses --      1.0747                 1.0619                 1.0702
 Frc consts  --      5.3443                 5.3752                 5.7647
 IR Inten    --     89.3931               122.8122                 8.7198

                     28                     29                     30
                      A                      A                      A
 Frequencies --   3029.2661              3048.5407              3086.6509
 Red. masses --      1.0507                 1.0718                 1.0985
 Frc consts  --      5.6807                 5.8687                 6.1664
 IR Inten    --     42.3224                37.5975                41.3648

                     31                     32                     33
                      A                      A                      A
 Frequencies --   3095.7604              3104.9021              3512.7078
 Red. masses --      1.1006                 1.1023                 1.0739
 Frc consts  --      6.2145                 6.2611                 7.8075
 IR Inten    --     29.6058                27.8903                 0.0483

 - Thermochemistry -
 -------------------
 Temperature   298.150 Kelvin.  Pressure   1.00000 Atm.
 Atom     1 has atomic number  7 and mass  14.00307

 Molecular mass:    59.07350 amu.
 Principal axes and moments of inertia in atomic units:
                           1         2         3
     Eigenvalues --    68.34076 462.75675 493.87218
           X            0.99996   0.00868   0.00222
           Y           -0.00853   0.99808  -0.06137
           Z           -0.00274   0.06135   0.99811
 This molecule is an asymmetric top.
 Rotational symmetry number  1.
 Rotational temperatures (Kelvin)      1.26738     0.18717     0.17538
 Rotational constants (GHZ):          26.40798     3.89998     3.65427
 Zero-point vibrational energy     316145.5 (Joules/Mol)
                                   75.56060 (Kcal/Mol)
 Warning -- explicit consideration of   5 degrees of freedom as
           vibrations may cause significant error
 Vibrational temperatures:    174.80   317.97   381.18   395.81   648.80
          (Kelvin)           1077.37  1179.61  1277.89  1471.18  1520.00
                             1600.07  1645.10  1706.51  1784.39  1875.14
                             1995.55  2034.47  2098.00  2128.80  2139.99
                             2154.50  2155.89  2182.96  2192.54  4180.01
                             4217.26  4350.35  4358.44  4386.17  4441.00
                             4454.11  4467.26  5054.00

 Zero-point correction=                           0.120413 (Hartree/Particle)
 Thermal correction to Energy=                    0.126075
 Thermal correction to Enthalpy=                  0.127019
 Thermal correction to Gibbs Free Energy=         0.092566
 Sum of electronic and zero-point Energies=           -174.437008
 Sum of electronic and thermal Energies=              -174.431346
 Sum of electronic and thermal Enthalpies=            -174.430402
 Sum of electronic and thermal Free Energies=         -174.464855

                     E (Thermal)             CV                S
                      KCal/Mol        Cal/Mol-Kelvin    Cal/Mol-Kelvin
 Total                   79.113             18.868             72.512
 Electronic               0.000              0.000              0.000
 Translational            0.889              2.981             38.149
 Rotational               0.889              2.981             24.261
 Vibrational             77.336             12.906             10.102
 Vibration     1          0.609              1.931              3.076
 Vibration     2          0.648              1.809              1.951
 Vibration     3          0.671              1.737              1.629
 Vibration     4          0.677              1.719              1.564
 Vibration     5          0.810              1.359              0.793

 Optimization completed.
    -- Stationary point found.
 Normal termination of Gaussian 16 at Thu Sep 28 15:29:26 2023.
 Gaussian 16:  ES64L-G16RevB.01 20-Dec-2017

 ---------------------------------
 # rohf/gen geom=check guess=check
 ---------------------------------

 ------------------------------------
 ethyl methyl amine, ROHF/cc-pVTZ-F12
 ------------------------------------
 Structure from the checkpoint file:  "EtNHMe.chk"
 Charge =  0 Multiplicity = 1

                         Standard orientation:
 ---------------------------------------------------------------------
 Center     Atomic      Atomic             Coordinates (Angstroms)
 Number     Number       Type             X           Y           Z
 ---------------------------------------------------------------------
      1          7           0        0.535935   -0.483861   -0.113252
      2          6           0        1.875669    0.071664   -0.004930
      3          6           0       -0.523977    0.502678    0.048225
      4          6           0       -1.899627   -0.143486   -0.026487
      5          1           0        0.413834   -1.228906    0.561016
      6          1           0        2.612885   -0.727635   -0.076476
      7          1           0        2.056185    0.625239    0.929990
      8          1           0        2.053357    0.759640   -0.833622
      9          1           0       -0.429384    1.064070    0.993389
     10          1           0       -0.418031    1.237380   -0.754893
     11          1           0       -2.685946    0.605233    0.074444
     12          1           0       -2.034815   -0.873244    0.775224
     13          1           0       -2.032026   -0.659889   -0.977153
 ---------------------------------------------------------------------

 SCF Done:  E(ROHF) =  -173.354701437     A.U. after   10 cycles

 The electronic state is 1-A.
 Alpha  occ. eigenvalues --  -15.53600 -11.24331 -11.23792 -11.20997  -1.19967
 Alpha  occ. eigenvalues --   -1.00632  -0.89198  -0.82145  -0.65631  -0.61253
 Alpha  occ. eigenvalues --   -0.60833  -0.57019  -0.53156  -0.50282  -0.48998
 Alpha  occ. eigenvalues --   -0.48695  -0.36539
 Alpha virt. eigenvalues --    0.04747   0.05367   0.05996   0.06418   0.07615
 Alpha virt. eigenvalues --    0.08628   0.09141   0.10788   0.10859   0.12378
 Alpha virt. eigenvalues --    0.14312   0.15264   0.17015   0.18545   0.21537

 Mulliken charges and spin densities:
               1          2
     1  N   -0.535988   0.000000
     2  C   -0.123805   0.000000
     3  C    0.051291   0.000000
     4  C   -0.277539   0.000000
     5  H    0.216070   0.000000
     6  H    0.103878   0.000000
     7  H    0.062521   0.000000
     8  H    0.094578   0.000000
     9  H    0.056911   0.000000
    10  H    0.081130   0.000000
    11  H    0.094040   0.000000
    12  H    0.070960   0.000000
    13  H    0.105951   0.000000
 Sum of Mulliken charges =  -0.00000   0.00000

 Dipole moment (field-independent basis, Debye):
    X=              0.0322    Y=              0.2916    Z=              0.9667  Tot=              1.0103
 Quadrupole moment (field-independent basis, Debye-Ang):
   XX=            -26.8414   YY=            -27.3961   ZZ=            -28.1201
   XY=             -0.2892   XZ=              0.3314   YZ=             -1.9296

 Normal termination of Gaussian 16 at Thu Sep 28 15:32:30 2023.
