 Gaussian 16, Revision B.01,
 Gaussian 16:  ES64L-G16RevB.01 20-Dec-2017

 --------------------
 # b3lyp/gen opt freq
 --------------------

 ---------------------------------
 ethyl methyl amine, B3LYP/pcseg-2
 ---------------------------------
 Symbolic Z-matrix:
 Charge =  0 Multiplicity = 1

 SCF Done:  E(RB3LYP) =  -174.557266345     A.U. after   11 cycles
 SCF Done:  E(RB3LYP) =  -174.557415641     A.U. after    8 cycles
 SCF Done:  E(RB3LYP) =  -174.557420311     A.U. after    7 cycles
 SCF Done:  E(RB3LYP) =  -174.557421284     A.U. after    7 cycles
 SCF Done:  E(RB3LYP) =  -174.557421518     A.U. after    6 cycles
 SCF Done:  E(RB3LYP) =  -174.557421569     A.U. after    5 cycles
 Optimization completed.
    -- Stationary point found.
 Normal termination of Gaussian 16 at Thu Jun 16 15:02:02 2022.

 ------------------------------------------------------------------
 #N Geom=AllCheck Guess=TCheck SCRF=Check GenChk RB3LYP/ChkBas Freq
 ------------------------------------------------------------------

 Structure from the checkpoint file:  "/wrk/irikura/Gau-16564.chk"
 ---------------------------------
 ethyl methyl amine, B3LYP/pcseg-2
 ---------------------------------
 Charge =  0 Multiplicity = 1

                         Standard orientation:
 ---------------------------------------------------------------------
 Center     Atomic      Atomic             Coordinates (Angstroms)
 Number     Number       Type             X           Y           Z
 ---------------------------------------------------------------------
      1          7           0        0.535935   -0.483861   -0.113252
      2          6           0        1.875669    0.071664   -0.004930
      3          6           0       -0.523977    0.502678    0.048225
      4          6           0       -1.899627   -0.143486   -0.026487
      5          1           0        0.413834   -1.228906    0.561016
      6          1           0        2.612885   -0.727635   -0.076476
      7          1           0        2.056185    0.625239    0.929990
      8          1           0        2.053357    0.759640   -0.833622
      9          1           0       -0.429384    1.064070    0.993389
     10          1           0       -0.418031    1.237380   -0.754893
     11          1           0       -2.685946    0.605233    0.074444
     12          1           0       -2.034815   -0.873244    0.775224
     13          1           0       -2.032026   -0.659889   -0.977153
 ---------------------------------------------------------------------

 SCF Done:  E(RB3LYP) =  -174.557421569     A.U. after    1 cycles

 The electronic state is 1-A.
 Alpha  occ. eigenvalues --  -14.29569 -10.19085 -10.18512 -10.15935  -0.90178
 Alpha  occ. eigenvalues --   -0.74805  -0.65875  -0.60640  -0.48546  -0.45584
 Alpha  occ. eigenvalues --   -0.44739  -0.41487  -0.38504  -0.36173  -0.35439
 Alpha  occ. eigenvalues --   -0.34775  -0.22597
 Alpha virt. eigenvalues --    0.01394   0.03211   0.04065   0.05931   0.07279
 Alpha virt. eigenvalues --    0.08003   0.09669   0.10184   0.10978   0.12886
 Alpha virt. eigenvalues --    0.14592   0.16364   0.18568   0.19404   0.20882

 Mulliken charges:
               1
     1  N   -0.321267
     2  C    0.054267
     3  C    0.132733
     4  C   -0.074945
     5  H    0.083705
     6  H    0.028803
     7  H   -0.000263
     8  H    0.025433
     9  H   -0.012477
    10  H    0.013646
    11  H    0.026075
    12  H    0.012156
    13  H    0.032135
 Sum of Mulliken charges =  -0.00000

 Dipole moment (field-independent basis, Debye):
    X=              0.0335    Y=              0.2109    Z=              0.8912  Tot=              0.9165
 Quadrupole moment (field-independent basis, Debye-Ang):
   XX=            -27.0021   YY=            -27.6421   ZZ=            -28.4120
   XY=             -0.3804   XZ=              0.2639   YZ=             -1.9782

  Exact polarizability:  57.290   0.439  46.569   0.357   1.001  43.924
 Approx polarizability:  65.557  -0.044  65.181   0.125   0.711  62.182

                      1                      2                      3
                      A                      A                      A
 Frequencies --    121.4926               220.9962               264.9339
 Red. masses --      2.1921                 1.0419                 1.3043
 Frc consts  --      0.0191                 0.0300                 0.0539
 IR Inten    --      1.6153                 0.4498                 0.8430

                      4                      5                      6
                      A                      A                      A
 Frequencies --    275.1036               450.9387               748.8073
 Red. masses --      1.9440                 2.7787                 1.3479
 Frc consts  --      0.0867                 0.3329                 0.4453
 IR Inten    --      2.7676                 0.7754                95.1713

                      7                      8                      9
                      A                      A                      A
 Frequencies --    819.8711               888.1784              1022.5258
 Red. masses --      1.1204                 1.5351                 2.5320
 Frc consts  --      0.4437                 0.7135                 1.5598
 IR Inten    --      0.5964                 2.8340                 8.8445

                     10                     11                     12
                      A                      A                      A
 Frequencies --   1056.4548              1112.1038              1143.4031
 Red. masses --      1.4199                 1.3423                 3.3655
 Frc consts  --      0.9337                 0.9781                 2.5924
 IR Inten    --      4.3614                 2.3373                35.4256

                     13                     14                     15
                      A                      A                      A
 Frequencies --   1186.0867              1240.2119              1303.2834
 Red. masses --      1.7893                 1.8635                 1.1637
 Frc consts  --      1.4831                 1.6888                 1.1645
 IR Inten    --     18.6137                 2.1693                 5.1564

                     16                     17                     18
                      A                      A                      A
 Frequencies --   1386.9716              1414.0256              1458.1800
 Red. masses --      1.3007                 1.2916                 1.1749
 Frc consts  --      1.4742                 1.5216                 1.4719
 IR Inten    --      7.7334                10.3068                 0.3561

                     19                     20                     21
                      A                      A                      A
 Frequencies --   1479.5901              1487.3653              1497.4508
 Red. masses --      1.1290                 1.0486                 1.0386
 Frc consts  --      1.4563                 1.3668                 1.3722
 IR Inten    --     14.7846                 2.5075                 7.0863

                     22                     23                     24
                      A                      A                      A
 Frequencies --   1498.4200              1517.2294              1523.8936
 Red. masses --      1.1005                 1.0715                 1.0859
 Frc consts  --      1.4558                 1.4532                 1.4858
 IR Inten    --      4.5410                14.3882                 1.9442

                     25                     26                     27
                      A                      A                      A
 Frequencies --   2905.2428              2931.1365              3023.6354
 Red. masses --      1.0747                 1.0619                 1.0703
 Frc consts  --      5.3443                 5.3752                 5.7650
 IR Inten    --     89.3335               122.8511                 8.7268

                     28                     29                     30
                      A                      A                      A
 Frequencies --   3029.2607              3048.5368              3086.6527
 Red. masses --      1.0506                 1.0718                 1.0985
 Frc consts  --      5.6803                 5.8687                 6.1664
 IR Inten    --     42.2982                37.6112                41.3561

                     31                     32                     33
                      A                      A                      A
 Frequencies --   3095.7552              3104.9031              3512.7071
 Red. masses --      1.1006                 1.1023                 1.0739
 Frc consts  --      6.2145                 6.2611                 7.8075
 IR Inten    --     29.6197                27.8901                 0.0483

 - Thermochemistry -
 -------------------
 Temperature   298.150 Kelvin.  Pressure   1.00000 Atm.
 Atom     1 has atomic number  7 and mass  14.00307

 Molecular mass:    59.07350 amu.
 Principal axes and moments of inertia in atomic units:
                           1         2         3
     Eigenvalues --    68.34072 462.75681 493.87220
           X            0.99996   0.00868   0.00222
           Y           -0.00853   0.99808  -0.06137
           Z           -0.00274   0.06135   0.99811
 This molecule is an asymmetric top.
 Rotational symmetry number  1.
 Rotational temperatures (Kelvin)      1.26738     0.18717     0.17538
 Rotational constants (GHZ):          26.40799     3.89998     3.65427
 Zero-point vibrational energy     316145.2 (Joules/Mol)
                                   75.56051 (Kcal/Mol)
 Warning -- explicit consideration of   5 degrees of freedom as
           vibrations may cause significant error
 Vibrational temperatures:    174.80   317.96   381.18   395.81   648.80
          (Kelvin)           1077.37  1179.61  1277.89  1471.19  1520.00
                             1600.07  1645.10  1706.51  1784.39  1875.13
                             1995.54  2034.47  2098.00  2128.80  2139.99
                             2154.50  2155.89  2182.95  2192.54  4180.00
                             4217.25  4350.34  4358.43  4386.16  4441.00
                             4454.10  4467.26  5054.00

 Zero-point correction=                           0.120413 (Hartree/Particle)
 Thermal correction to Energy=                    0.126075
 Thermal correction to Enthalpy=                  0.127019
 Thermal correction to Gibbs Free Energy=         0.092566
 Sum of electronic and zero-point Energies=           -174.437008
 Sum of electronic and thermal Energies=              -174.431347
 Sum of electronic and thermal Enthalpies=            -174.430402
 Sum of electronic and thermal Free Energies=         -174.464855

                     E (Thermal)             CV                S
                      KCal/Mol        Cal/Mol-Kelvin    Cal/Mol-Kelvin
 Total                   79.113             18.868             72.512
 Electronic               0.000              0.000              0.000
 Translational            0.889              2.981             38.149
 Rotational               0.889              2.981             24.261
 Vibrational             77.336             12.906             10.102
 Vibration     1          0.609              1.931              3.076
 Vibration     2          0.648              1.809              1.951
 Vibration     3          0.671              1.737              1.629
 Vibration     4          0.677              1.719              1.564
 Vibration     5          0.810              1.359              0.793

 Optimization completed.
    -- Stationary point found.
 Normal termination of Gaussian 16 at Thu Jun 16 15:04:57 2022.
