 Gaussian 16, Revision B.01,

 ---------------------------------------
 # b3lyp/gen opt freq CPHF(Grid=OneStep)
 ---------------------------------------

 --------------------------------
 ethyl vinyl ether, B3LYP/pcseg-2
 --------------------------------
 Symbolic Z-matrix:
 Charge =  0 Multiplicity = 1

 SCF Done:  E(RB3LYP) =  -232.535068238     A.U. after   12 cycles
 Optimization completed.
    -- Stationary point found.
 Normal termination of Gaussian 16 at Sat Sep 30 19:50:55 2023.

 ------------------------------------------------------------------
 #N Geom=AllCheck Guess=TCheck SCRF=Check GenChk RB3LYP/ChkBas Freq
 ------------------------------------------------------------------

 Structure from the checkpoint file:  "etoc2h3.chk"
 --------------------------------
 ethyl vinyl ether, B3LYP/pcseg-2
 --------------------------------
 Charge =  0 Multiplicity = 1

 SCF Done:  E(RB3LYP) =  -232.535068238     A.U. after    1 cycles

  Exact polarizability:  68.483   4.180  53.776   0.000  -0.000  43.008
 Approx polarizability:  82.257  10.826  82.521  -0.000  -0.000  61.031

                      1                      2                      3
                     A"                     A"                     A'
 Frequencies --    102.5712               211.7169               229.5527
 Red. masses --      2.4065                 1.2206                 2.9127
 Frc consts  --      0.0149                 0.0322                 0.0904
 IR Inten    --      0.0699                 1.6475                 0.8193

                      4                      5                      6
                     A"                     A'                     A'
 Frequencies --    274.9258               389.3825               608.4252
 Red. masses --      1.5241                 2.8693                 2.2743
 Frc consts  --      0.0679                 0.2563                 0.4960
 IR Inten    --      3.5686                 2.9575                 0.6110

                      7                      8                      9
                     A"                     A"                     A"
 Frequencies --    716.5676               831.1207               845.5856
 Red. masses --      1.4855                 1.1186                 1.3242
 Frc consts  --      0.4494                 0.4552                 0.5579
 IR Inten    --      2.3755                22.2985                49.4375

                     10                     11                     12
                     A'                     A'                     A"
 Frequencies --    859.4483               985.8142              1000.2207
 Red. masses --      2.3568                 2.2837                 1.1548
 Frc consts  --      1.0257                 1.3076                 0.6807
 IR Inten    --     13.6717                22.3131                16.0284

                     13                     14                     15
                     A'                     A'                     A"
 Frequencies --   1051.0430              1136.4028              1182.1854
 Red. masses --      2.3117                 2.1412                 1.5323
 Frc consts  --      1.5046                 1.6292                 1.2618
 IR Inten    --     44.2906                10.9235                 4.1944

                     16                     17                     18
                     A'                     A"                     A'
 Frequencies --   1236.8383              1300.2300              1354.9631
 Red. masses --      3.8091                 1.1053                 1.2640
 Frc consts  --      3.4332                 1.1010                 1.3673
 IR Inten    --    202.0292                 1.1580                54.9333

                     19                     20                     21
                     A'                     A'                     A'
 Frequencies --   1402.3187              1424.8064              1450.5491
 Red. masses --      1.2227                 1.3336                 1.2137
 Frc consts  --      1.4166                 1.5951                 1.5047
 IR Inten    --      1.4144                16.8781                 3.0116

                     22                     23                     24
                     A"                     A'                     A'
 Frequencies --   1484.7635              1500.5593              1521.7026
 Red. masses --      1.0385                 1.0486                 1.0859
 Frc consts  --      1.3489                 1.3912                 1.4814
 IR Inten    --      6.5595                 4.2318                 7.1512

                     25                     26                     27
                     A'                     A'                     A"
 Frequencies --   1677.4965              3002.4448              3034.9959
 Red. masses --      4.1147                 1.0554                 1.1077
 Frc consts  --      6.8221                 5.6055                 6.0114
 IR Inten    --    180.0732                23.8353                27.9666

                     28                     29                     30
                     A'                     A'                     A"
 Frequencies --   3042.7181              3108.7504              3114.6685
 Red. masses --      1.0348                 1.1013                 1.1036
 Frc consts  --      5.6448                 6.2708                 6.3077
 IR Inten    --     17.4622                21.5191                27.4471

                     31                     32                     33
                     A'                     A'                     A'
 Frequencies --   3172.5826              3185.4736              3258.3418
 Red. masses --      1.0599                 1.0916                 1.1159
 Frc consts  --      6.2856                 6.5260                 6.9802
 IR Inten    --      5.3238                 6.6834                 9.1315

 - Thermochemistry -
 -------------------
 Temperature   298.150 Kelvin.  Pressure   1.00000 Atm.
 Atom     1 has atomic number  8 and mass  15.99491

 Molecular mass:    72.05751 amu.
 Principal axes and moments of inertia in atomic units:
                           1         2         3
     Eigenvalues --   108.32563 647.28892 733.10977
           X            0.99978   0.02097   0.00000
           Y           -0.02097   0.99978   0.00000
           Z           -0.00000  -0.00000   1.00000
 This molecule is an asymmetric top.
 Rotational symmetry number  1.
 Rotational temperatures (Kelvin)      0.79957     0.13381     0.11815
 Rotational constants (GHZ):          16.66033     2.78815     2.46176
 Zero-point vibrational energy     297267.0 (Joules/Mol)
                                   71.04852 (Kcal/Mol)
 Warning -- explicit consideration of   6 degrees of freedom as
           vibrations may cause significant error
 Vibrational temperatures:    147.58   304.61   330.28   395.56   560.23
          (Kelvin)            875.39  1030.98  1195.80  1216.61  1236.55
                             1418.37  1439.09  1512.22  1635.03  1700.90
                             1779.53  1870.74  1949.49  2017.62  2049.98
                             2087.02  2136.24  2158.97  2189.39  2413.54
                             4319.85  4366.68  4377.79  4472.80  4481.31
                             4564.64  4583.19  4688.03

 Zero-point correction=                           0.113223 (Hartree/Particle)
 Thermal correction to Energy=                    0.119294
 Thermal correction to Enthalpy=                  0.120238
 Thermal correction to Gibbs Free Energy=         0.084198
 Sum of electronic and zero-point Energies=           -232.421845
 Sum of electronic and thermal Energies=              -232.415774
 Sum of electronic and thermal Enthalpies=            -232.414830
 Sum of electronic and thermal Free Energies=         -232.450870

                     E (Thermal)             CV                S
                      KCal/Mol        Cal/Mol-Kelvin    Cal/Mol-Kelvin
 Total                   74.858             20.859             75.853
 Electronic               0.000              0.000              0.000
 Translational            0.889              2.981             38.741
 Rotational               0.889              2.981             25.445
 Vibrational             73.081             14.897             11.667
 Vibration     1          0.605              1.947              3.405
 Vibration     2          0.643              1.823              2.029
 Vibration     3          0.652              1.796              1.882
 Vibration     4          0.677              1.720              1.565
 Vibration     5          0.757              1.493              1.003
 Vibration     6          0.967              1.014              0.435

 Optimization completed.
    -- Stationary point found.
 Normal termination of Gaussian 16 at Sat Sep 30 20:00:30 2023.
 Gaussian 16:  ES64L-G16RevB.01 20-Dec-2017

 ---------------------------------
 # rohf/gen geom=check guess=check
 ---------------------------------

 -----------------------------------
 ethyl vinyl ether, ROHF/cc-pVTZ-F12
 -----------------------------------
 Structure from the checkpoint file:  "etoc2h3.chk"
 Charge =  0 Multiplicity = 1

                         Standard orientation:
 ---------------------------------------------------------------------
 Center     Atomic      Atomic             Coordinates (Angstroms)
 Number     Number       Type             X           Y           Z
 ---------------------------------------------------------------------
      1          8           0        0.000000    0.713019    0.000000
      2          6           0       -1.345671    0.581324    0.000000
      3          6           0        0.783006   -0.480382    0.000000
      4          6           0       -2.067271   -0.537987    0.000000
      5          6           0        2.244194   -0.087470    0.000000
      6          1           0       -1.811634    1.558101    0.000000
      7          1           0       -3.143453   -0.461165    0.000000
      8          1           0       -1.638814   -1.527933    0.000000
      9          1           0        0.532681   -1.074324    0.884443
     10          1           0        0.532681   -1.074324   -0.884443
     11          1           0        2.869229   -0.980959    0.000000
     12          1           0        2.486880    0.501772   -0.883755
     13          1           0        2.486880    0.501772    0.883755
 ---------------------------------------------------------------------

 SCF Done:  E(ROHF) =  -231.059685585     A.U. after   11 cycles

 The electronic state is 1-A'.
 Alpha  occ. eigenvalues --  -20.57993 -11.29115 -11.28358 -11.21956 -11.20822
 Alpha  occ. eigenvalues --   -1.40680  -1.05074  -1.00037  -0.87225  -0.77212
 Alpha  occ. eigenvalues --   -0.68876  -0.66740  -0.65272  -0.55818  -0.55568
 Alpha  occ. eigenvalues --   -0.55024  -0.52088  -0.49261  -0.48089  -0.34437
 Alpha virt. eigenvalues --    0.04659   0.04932   0.05351   0.06900   0.07022
 Alpha virt. eigenvalues --    0.08309   0.09349   0.10114   0.10139   0.10929
 Alpha virt. eigenvalues --    0.11392   0.11825   0.14443   0.17515   0.17976

 Mulliken charges and spin densities:
               1          2
     1  O   -0.476933   0.000000
     2  C    0.054101   0.000000
     3  C    0.065892   0.000000
     4  C   -0.356627   0.000000
     5  C   -0.287879   0.000000
     6  H    0.186747   0.000000
     7  H    0.159149   0.000000
     8  H    0.142996   0.000000
     9  H    0.103323   0.000000
    10  H    0.103323   0.000000
    11  H    0.099412   0.000000
    12  H    0.103248   0.000000
    13  H    0.103248   0.000000
 Sum of Mulliken charges =  -0.00000   0.00000

 Dipole moment (field-independent basis, Debye):
    X=              0.5413    Y=             -0.9040    Z=             -0.0000  Tot=              1.0537
 Quadrupole moment (field-independent basis, Debye-Ang):
   XX=            -30.2095   YY=            -31.1241   ZZ=            -33.8563
   XY=             -1.8644   XZ=             -0.0000   YZ=             -0.0000

 Normal termination of Gaussian 16 at Sat Sep 30 20:03:58 2023.
