 Gaussian 16, Revision B.01,
 Gaussian 16:  ES64L-G16RevB.01 20-Dec-2017

 --------------------
 # b3lyp/gen opt freq
 --------------------

 --------------------------------
 ethyl vinyl ether, B3LYP/pcseg-2
 --------------------------------
 Symbolic Z-matrix:
 Charge =  0 Multiplicity = 1

 SCF Done:  E(RB3LYP) =  -232.534942137     A.U. after   12 cycles
 SCF Done:  E(RB3LYP) =  -232.535063378     A.U. after    8 cycles
 SCF Done:  E(RB3LYP) =  -232.535067537     A.U. after    7 cycles
 SCF Done:  E(RB3LYP) =  -232.535068238     A.U. after    6 cycles
 Optimization completed.
    -- Stationary point found.
 Normal termination of Gaussian 16 at Mon Jun 20 10:24:50 2022.

 ------------------------------------------------------------------
 #N Geom=AllCheck Guess=TCheck SCRF=Check GenChk RB3LYP/ChkBas Freq
 ------------------------------------------------------------------

 Structure from the checkpoint file:  "/wrk/irikura/Gau-9373.chk"
 --------------------------------
 ethyl vinyl ether, B3LYP/pcseg-2
 --------------------------------
 Charge =  0 Multiplicity = 1

                         Standard orientation:
 ---------------------------------------------------------------------
 Center     Atomic      Atomic             Coordinates (Angstroms)
 Number     Number       Type             X           Y           Z
 ---------------------------------------------------------------------
      1          8           0       -0.000000    0.713019    0.000000
      2          6           0       -1.345671    0.581324    0.000000
      3          6           0        0.783006   -0.480382    0.000000
      4          6           0       -2.067271   -0.537987    0.000000
      5          6           0        2.244194   -0.087470    0.000000
      6          1           0       -1.811634    1.558101    0.000000
      7          1           0       -3.143453   -0.461165    0.000000
      8          1           0       -1.638814   -1.527933    0.000000
      9          1           0        0.532681   -1.074324    0.884443
     10          1           0        0.532681   -1.074324   -0.884443
     11          1           0        2.869229   -0.980959    0.000000
     12          1           0        2.486880    0.501772   -0.883755
     13          1           0        2.486880    0.501772    0.883755
 ---------------------------------------------------------------------

 SCF Done:  E(RB3LYP) =  -232.535068238     A.U. after    1 cycles

 The electronic state is 1-A'.
 Alpha  occ. eigenvalues --  -19.15509 -10.22949 -10.22702 -10.16960 -10.15403
 Alpha  occ. eigenvalues --   -1.06860  -0.78634  -0.73844  -0.65046  -0.57011
 Alpha  occ. eigenvalues --   -0.51283  -0.48934  -0.47714  -0.40776  -0.39758
 Alpha  occ. eigenvalues --   -0.39731  -0.37675  -0.34057  -0.33919  -0.23840
 Alpha virt. eigenvalues --    0.01563   0.02085   0.03666   0.04118   0.06016
 Alpha virt. eigenvalues --    0.07244   0.07690   0.08839   0.09993   0.11329
 Alpha virt. eigenvalues --    0.14036   0.16058   0.17006   0.17431   0.19827

 Mulliken charges:
               1
     1  O   -0.406906
     2  C    0.193716
     3  C    0.210537
     4  C   -0.197731
     5  C   -0.066599
     6  H    0.043816
     7  H    0.041921
     8  H    0.054483
     9  H    0.021037
    10  H    0.021037
    11  H    0.021129
    12  H    0.031780
    13  H    0.031780
 Sum of Mulliken charges =  -0.00000

 Dipole moment (field-independent basis, Debye):
    X=              0.6597    Y=             -0.8143    Z=              0.0000  Tot=              1.0480
 Quadrupole moment (field-independent basis, Debye-Ang):
   XX=            -30.4174   YY=            -31.4942   ZZ=            -33.8793
   XY=             -1.8658   XZ=              0.0000   YZ=             -0.0000

  Exact polarizability:  68.483   4.180  53.776   0.000  -0.000  43.009
 Approx polarizability:  82.257  10.826  82.521  -0.000  -0.000  61.031

                      1                      2                      3
                     A"                     A"                     A'
 Frequencies --    102.5694               211.7058               229.5532
 Red. masses --      2.4065                 1.2206                 2.9127
 Frc consts  --      0.0149                 0.0322                 0.0904
 IR Inten    --      0.0698                 1.6473                 0.8194

                      4                      5                      6
                     A"                     A'                     A'
 Frequencies --    274.9195               389.3822               608.4256
 Red. masses --      1.5240                 2.8692                 2.2743
 Frc consts  --      0.0679                 0.2563                 0.4960
 IR Inten    --      3.5672                 2.9572                 0.6111

                      7                      8                      9
                     A"                     A"                     A"
 Frequencies --    716.5658               831.1220               845.5862
 Red. masses --      1.4855                 1.1186                 1.3242
 Frc consts  --      0.4494                 0.4552                 0.5578
 IR Inten    --      2.3741                22.2966                49.4379

                     10                     11                     12
                     A'                     A'                     A"
 Frequencies --    859.4505               985.8119              1000.2239
 Red. masses --      2.3568                 2.2837                 1.1548
 Frc consts  --      1.0257                 1.3076                 0.6807
 IR Inten    --     13.6723                22.3108                16.0315

                     13                     14                     15
                     A'                     A'                     A"
 Frequencies --   1051.0457              1136.4019              1182.1848
 Red. masses --      2.3117                 2.1412                 1.5323
 Frc consts  --      1.5046                 1.6292                 1.2618
 IR Inten    --     44.2924                10.9256                 4.1941

                     16                     17                     18
                     A'                     A"                     A'
 Frequencies --   1236.8372              1300.2236              1354.9634
 Red. masses --      3.8091                 1.1053                 1.2640
 Frc consts  --      3.4332                 1.1009                 1.3673
 IR Inten    --    202.0232                 1.1581                54.9401

                     19                     20                     21
                     A'                     A'                     A'
 Frequencies --   1402.3189              1424.8050              1450.5496
 Red. masses --      1.2227                 1.3336                 1.2137
 Frc consts  --      1.4167                 1.5951                 1.5047
 IR Inten    --      1.4148                16.8729                 3.0132

                     22                     23                     24
                     A"                     A'                     A'
 Frequencies --   1484.7706              1500.5604              1521.7051
 Red. masses --      1.0385                 1.0486                 1.0859
 Frc consts  --      1.3489                 1.3912                 1.4814
 IR Inten    --      6.5598                 4.2314                 7.1527

                     25                     26                     27
                     A'                     A'                     A"
 Frequencies --   1677.4945              3002.4324              3034.9799
 Red. masses --      4.1146                 1.0554                 1.1077
 Frc consts  --      6.8218                 5.6054                 6.0113
 IR Inten    --    180.0492                23.8355                27.9617

                     28                     29                     30
                     A'                     A'                     A"
 Frequencies --   3042.7226              3108.7560              3114.6793
 Red. masses --      1.0348                 1.1013                 1.1036
 Frc consts  --      5.6448                 6.2708                 6.3077
 IR Inten    --     17.4688                21.5144                27.4433

                     31                     32                     33
                     A'                     A'                     A'
 Frequencies --   3172.5802              3185.4675              3258.3418
 Red. masses --      1.0599                 1.0915                 1.1159
 Frc consts  --      6.2856                 6.5259                 6.9802
 IR Inten    --      5.3263                 6.6798                 9.1323

 - Thermochemistry -
 -------------------
 Temperature   298.150 Kelvin.  Pressure   1.00000 Atm.
 Atom     1 has atomic number  8 and mass  15.99491

 Molecular mass:    72.05751 amu.
 Principal axes and moments of inertia in atomic units:
                           1         2         3
     Eigenvalues --   108.32561 647.28885 733.10970
           X            0.99978   0.02097   0.00000
           Y           -0.02097   0.99978   0.00000
           Z            0.00000  -0.00000   1.00000
 This molecule is an asymmetric top.
 Rotational symmetry number  1.
 Rotational temperatures (Kelvin)      0.79957     0.13381     0.11815
 Rotational constants (GHZ):          16.66034     2.78815     2.46176
 Zero-point vibrational energy     297266.9 (Joules/Mol)
                                   71.04848 (Kcal/Mol)
 Warning -- explicit consideration of   6 degrees of freedom as
           vibrations may cause significant error
 Vibrational temperatures:    147.57   304.60   330.28   395.55   560.23
          (Kelvin)            875.39  1030.98  1195.80  1216.61  1236.56
                             1418.36  1439.10  1512.22  1635.03  1700.90
                             1779.53  1870.73  1949.49  2017.62  2049.98
                             2087.02  2136.25  2158.97  2189.39  2413.54
                             4319.83  4366.66  4377.80  4472.81  4481.33
                             4564.64  4583.18  4688.03

 Zero-point correction=                           0.113223 (Hartree/Particle)
 Thermal correction to Energy=                    0.119294
 Thermal correction to Enthalpy=                  0.120238
 Thermal correction to Gibbs Free Energy=         0.084198
 Sum of electronic and zero-point Energies=           -232.421845
 Sum of electronic and thermal Energies=              -232.415774
 Sum of electronic and thermal Enthalpies=            -232.414830
 Sum of electronic and thermal Free Energies=         -232.450871

                     E (Thermal)             CV                S
                      KCal/Mol        Cal/Mol-Kelvin    Cal/Mol-Kelvin
 Total                   74.858             20.859             75.853
 Electronic               0.000              0.000              0.000
 Translational            0.889              2.981             38.741
 Rotational               0.889              2.981             25.445
 Vibrational             73.080             14.897             11.667
 Vibration     1          0.605              1.947              3.405
 Vibration     2          0.643              1.823              2.029
 Vibration     3          0.652              1.796              1.882
 Vibration     4          0.677              1.720              1.565
 Vibration     5          0.757              1.493              1.003
 Vibration     6          0.967              1.014              0.435

 Optimization completed.
    -- Stationary point found.
 Normal termination of Gaussian 16 at Mon Jun 20 10:27:09 2022.
