 Gaussian 16, Revision B.01,

 ---------------------------------------
 # b3lyp/gen opt freq CPHF(Grid=OneStep)
 ---------------------------------------

 ----------------------------
 methoxyethane, B3LYP/pcseg-2
 ----------------------------
 Symbolic Z-matrix:
 Charge =  0 Multiplicity = 1

 SCF Done:  E(RB3LYP) =  -194.430663603     A.U. after   11 cycles
 Optimization completed.
    -- Stationary point found.
 Normal termination of Gaussian 16 at Sat Sep 30 13:38:47 2023.

 ------------------------------------------------------------------
 #N Geom=AllCheck Guess=TCheck SCRF=Check GenChk RB3LYP/ChkBas Freq
 ------------------------------------------------------------------

 Structure from the checkpoint file:  "EtOMe.chk"
 ----------------------------
 methoxyethane, B3LYP/pcseg-2
 ----------------------------
 Charge =  0 Multiplicity = 1

 SCF Done:  E(RB3LYP) =  -194.430663603     A.U. after    1 cycles

  Exact polarizability:  47.305   5.349  46.739  -0.000   0.000  40.294
 Approx polarizability:  58.306   0.771  59.127  -0.000  -0.000  55.431

                      1                      2                      3
                     A"                     A"                     A"
 Frequencies --    114.5137               205.9135               256.7249
 Red. masses --      2.4136                 1.0639                 1.2185
 Frc consts  --      0.0186                 0.0266                 0.0473
 IR Inten    --      2.7629                 1.2813                 1.9105

                      4                      5                      6
                     A'                     A'                     A"
 Frequencies --    287.7868               464.9564               824.7686
 Red. masses --      2.4559                 2.8847                 1.0855
 Frc consts  --      0.1198                 0.3674                 0.4350
 IR Inten    --      2.7148                 0.4871                 0.2469

                      7                      8                      9
                     A'                     A'                     A'
 Frequencies --    862.8775              1026.1492              1114.6551
 Red. masses --      2.1668                 3.1237                 1.6980
 Frc consts  --      0.9505                 1.9379                 1.2430
 IR Inten    --     13.8152                17.2302                 5.1166

                     10                     11                     12
                     A'                     A"                     A"
 Frequencies --   1147.0321              1165.3875              1195.8346
 Red. masses --      6.6356                 1.3159                 1.4967
 Frc consts  --      5.1438                 1.0529                 1.2611
 IR Inten    --    159.3591                 0.0164                 9.8865

                     13                     14                     15
                     A'                     A"                     A'
 Frequencies --   1232.9700              1298.2884              1401.4963
 Red. masses --      1.7186                 1.1038                 1.2223
 Frc consts  --      1.5393                 1.0962                 1.4146
 IR Inten    --     33.4834                 1.8909                 2.5192

                     16                     17                     18
                     A'                     A'                     A"
 Frequencies --   1424.1384              1477.0111              1482.4423
 Red. masses --      1.3489                 1.1604                 1.0396
 Frc consts  --      1.6119                 1.4915                 1.3461
 IR Inten    --     28.4820                 0.0583                 4.2358

                     19                     20                     21
                     A"                     A'                     A'
 Frequencies --   1486.1279              1498.3666              1504.2104
 Red. masses --      1.0455                 1.0571                 1.0501
 Frc consts  --      1.3604                 1.3983                 1.3999
 IR Inten    --      8.1599                 6.8631                 3.4496

                     22                     23                     24
                     A'                     A'                     A'
 Frequencies --   1528.0066              2954.1300              2972.7517
 Red. masses --      1.0890                 1.0522                 1.0388
 Frc consts  --      1.4980                 5.4103                 5.4089
 IR Inten    --      2.1937                40.6054                89.3445

                     25                     26                     27
                     A"                     A"                     A'
 Frequencies --   2976.7207              3011.3093              3040.0260
 Red. masses --      1.1061                 1.1040                 1.0347
 Frc consts  --      5.7748                 5.8983                 5.6343
 IR Inten    --     66.6533                60.1487                18.0924

                     28                     29                     30
                     A'                     A"                     A'
 Frequencies --   3105.3112              3110.5098              3113.9023
 Red. masses --      1.1012                 1.1031                 1.0955
 Frc consts  --      6.2567                 6.2885                 6.2585
 IR Inten    --     26.1302                28.5096                27.4571

 - Thermochemistry -
 -------------------
 Temperature   298.150 Kelvin.  Pressure   1.00000 Atm.
 Atom     1 has atomic number  6 and mass  12.00000

 Molecular mass:    60.05751 amu.
 Principal axes and moments of inertia in atomic units:
                           1         2         3
     Eigenvalues --    63.37280 436.61775 466.10611
           X            0.70234   0.71184   0.00000
           Y            0.71184  -0.70234   0.00000
           Z            0.00000  -0.00000   1.00000
 This molecule is an asymmetric top.
 Rotational symmetry number  1.
 Rotational temperatures (Kelvin)      1.36674     0.19837     0.18582
 Rotational constants (GHZ):          28.47817     4.13346     3.87195
 Zero-point vibrational energy     282823.0 (Joules/Mol)
                                   67.59633 (Kcal/Mol)
 Warning -- explicit consideration of   5 degrees of freedom as
           vibrations may cause significant error
 Vibrational temperatures:    164.76   296.26   369.37   414.06   668.97
          (Kelvin)           1186.66  1241.49  1476.40  1603.74  1650.32
                             1676.73  1720.54  1773.97  1867.95  2016.44
                             2049.02  2125.09  2132.90  2138.21  2155.82
                             2164.22  2198.46  4250.33  4277.13  4282.84
                             4332.60  4373.92  4467.85  4475.33  4480.21

 Zero-point correction=                           0.107722 (Hartree/Particle)
 Thermal correction to Energy=                    0.113295
 Thermal correction to Enthalpy=                  0.114239
 Thermal correction to Gibbs Free Energy=         0.079903
 Sum of electronic and zero-point Energies=           -194.322942
 Sum of electronic and thermal Energies=              -194.317369
 Sum of electronic and thermal Enthalpies=            -194.316425
 Sum of electronic and thermal Free Energies=         -194.350761

                     E (Thermal)             CV                S
                      KCal/Mol        Cal/Mol-Kelvin    Cal/Mol-Kelvin
 Total                   71.093             17.959             72.266
 Electronic               0.000              0.000              0.000
 Translational            0.889              2.981             38.198
 Rotational               0.889              2.981             24.071
 Vibrational             69.316             11.997              9.997
 Vibration     1          0.607              1.937              3.191
 Vibration     2          0.640              1.831              2.080
 Vibration     3          0.666              1.751              1.684
 Vibration     4          0.685              1.696              1.487
 Vibration     5          0.822              1.328              0.752

 Optimization completed.
    -- Stationary point found.
 Normal termination of Gaussian 16 at Sat Sep 30 13:45:06 2023.
 Gaussian 16:  ES64L-G16RevB.01 20-Dec-2017

 ---------------------------------
 # rohf/gen geom=check guess=check
 ---------------------------------

 -------------------------------
 methoxyethane, ROHF/cc-pVTZ-F12
 -------------------------------
 Structure from the checkpoint file:  "EtOMe.chk"
 Charge =  0 Multiplicity = 1

                         Standard orientation:
 ---------------------------------------------------------------------
 Center     Atomic      Atomic             Coordinates (Angstroms)
 Number     Number       Type             X           Y           Z
 ---------------------------------------------------------------------
      1          6           0       -1.313375   -1.253167    0.000000
      2          8           0       -0.012169   -0.710683    0.000000
      3          6           0        0.000000    0.705929    0.000000
      4          6           0        1.436348    1.185410    0.000000
      5          1           0       -1.215551   -2.336650    0.000000
      6          1           0       -1.877174   -0.946735    0.889684
      7          1           0       -1.877174   -0.946735   -0.889684
      8          1           0       -0.533083    1.081637   -0.884276
      9          1           0       -0.533083    1.081637    0.884276
     10          1           0        1.470978    2.275501    0.000000
     11          1           0        1.962298    0.823889    0.883319
     12          1           0        1.962298    0.823889   -0.883319
 ---------------------------------------------------------------------

 SCF Done:  E(ROHF) =  -193.192618324     A.U. after    9 cycles

 The electronic state is 1-A'.
 Alpha  occ. eigenvalues --  -20.55002 -11.27171 -11.26653 -11.21105  -1.36990
 Alpha  occ. eigenvalues --   -1.02400  -0.91395  -0.82983  -0.66776  -0.65256
 Alpha  occ. eigenvalues --   -0.62483  -0.58202  -0.53550  -0.50761  -0.50260
 Alpha  occ. eigenvalues --   -0.47422  -0.42056
 Alpha virt. eigenvalues --    0.04701   0.05507   0.05978   0.06569   0.07948
 Alpha virt. eigenvalues --    0.08966   0.09167   0.10999   0.11141   0.12274
 Alpha virt. eigenvalues --    0.15691   0.18141   0.18978   0.19725   0.21949

 Mulliken charges and spin densities:
               1          2
     1  C   -0.063055   0.000000
     2  O   -0.493261   0.000000
     3  C    0.096643   0.000000
     4  C   -0.273274   0.000000
     5  H    0.129047   0.000000
     6  H    0.078276   0.000000
     7  H    0.078276   0.000000
     8  H    0.075637   0.000000
     9  H    0.075637   0.000000
    10  H    0.094755   0.000000
    11  H    0.100659   0.000000
    12  H    0.100659   0.000000
 Sum of Mulliken charges =  -0.00000   0.00000

 Dipole moment (field-independent basis, Debye):
    X=             -1.0818    Y=              0.8234    Z=             -0.0000  Tot=              1.3595
 Quadrupole moment (field-independent basis, Debye-Ang):
   XX=            -25.7376   YY=            -25.8740   ZZ=            -26.5176
   XY=              1.7734   XZ=              0.0000   YZ=             -0.0000

 Normal termination of Gaussian 16 at Sat Sep 30 13:46:36 2023.
