 Gaussian 16, Revision B.01,
 Gaussian 16:  ES64L-G16RevB.01 20-Dec-2017

 --------------------
 # b3lyp/gen opt freq
 --------------------

 ----------------------------
 methoxyethane, B3LYP/pcseg-2
 ----------------------------
 Symbolic Z-matrix:
 Charge =  0 Multiplicity = 1

 SCF Done:  E(RB3LYP) =  -194.430495741     A.U. after   11 cycles
 SCF Done:  E(RB3LYP) =  -194.430653055     A.U. after    8 cycles
 SCF Done:  E(RB3LYP) =  -194.430662243     A.U. after    7 cycles
 SCF Done:  E(RB3LYP) =  -194.430663604     A.U. after    6 cycles
 Optimization completed.
    -- Stationary point found.
 Normal termination of Gaussian 16 at Thu Jun 16 09:13:11 2022.

 ------------------------------------------------------------------
 #N Geom=AllCheck Guess=TCheck SCRF=Check GenChk RB3LYP/ChkBas Freq
 ------------------------------------------------------------------

 Structure from the checkpoint file:  "/wrk/irikura/Gau-24035.chk"
 ----------------------------
 methoxyethane, B3LYP/pcseg-2
 ----------------------------
 Charge =  0 Multiplicity = 1

                         Standard orientation:
 ---------------------------------------------------------------------
 Center     Atomic      Atomic             Coordinates (Angstroms)
 Number     Number       Type             X           Y           Z
 ---------------------------------------------------------------------
      1          6           0       -1.313375   -1.253167    0.000000
      2          8           0       -0.012169   -0.710683    0.000000
      3          6           0        0.000000    0.705929    0.000000
      4          6           0        1.436348    1.185410    0.000000
      5          1           0       -1.215552   -2.336650    0.000000
      6          1           0       -1.877174   -0.946735    0.889684
      7          1           0       -1.877174   -0.946735   -0.889684
      8          1           0       -0.533083    1.081637   -0.884276
      9          1           0       -0.533083    1.081637    0.884276
     10          1           0        1.470978    2.275501    0.000000
     11          1           0        1.962298    0.823889    0.883319
     12          1           0        1.962298    0.823889   -0.883319
 ---------------------------------------------------------------------

 SCF Done:  E(RB3LYP) =  -194.430663604     A.U. after    1 cycles

 The electronic state is 1-A'.
 Alpha  occ. eigenvalues --  -19.12371 -10.21742 -10.21213 -10.16081  -1.03465
 Alpha  occ. eigenvalues --   -0.76458  -0.67698  -0.60857  -0.49142  -0.48535
 Alpha  occ. eigenvalues --   -0.45642  -0.42449  -0.38805  -0.36847  -0.35834
 Alpha  occ. eigenvalues --   -0.32332  -0.26290
 Alpha virt. eigenvalues --    0.01567   0.03255   0.05762   0.05767   0.07643
 Alpha virt. eigenvalues --    0.08064   0.09526   0.09663   0.10973   0.14827
 Alpha virt. eigenvalues --    0.15889   0.17271   0.18021   0.20091   0.23234

 Mulliken charges:
               1
     1  C    0.146734
     2  O   -0.439569
     3  C    0.228804
     4  C   -0.052152
     5  H    0.040967
     6  H    0.007470
     7  H    0.007470
     8  H   -0.005473
     9  H   -0.005473
    10  H    0.014526
    11  H    0.028348
    12  H    0.028348
 Sum of Mulliken charges =  -0.00000

 Dipole moment (field-independent basis, Debye):
    X=             -0.9545    Y=              0.7300    Z=              0.0000  Tot=              1.2017
 Quadrupole moment (field-independent basis, Debye-Ang):
   XX=            -26.1044   YY=            -26.0181   ZZ=            -26.8856
   XY=              1.8154   XZ=              0.0000   YZ=             -0.0000

  Exact polarizability:  47.305   5.349  46.739  -0.000   0.000  40.294
 Approx polarizability:  58.306   0.771  59.127   0.000  -0.000  55.431

                      1                      2                      3
                     A"                     A"                     A"
 Frequencies --    114.5164               205.9188               256.7285
 Red. masses --      2.4136                 1.0639                 1.2185
 Frc consts  --      0.0186                 0.0266                 0.0473
 IR Inten    --      2.7629                 1.2812                 1.9105

                      4                      5                      6
                     A'                     A'                     A"
 Frequencies --    287.7868               464.9574               824.7702
 Red. masses --      2.4560                 2.8847                 1.0855
 Frc consts  --      0.1198                 0.3674                 0.4350
 IR Inten    --      2.7148                 0.4871                 0.2468

                      7                      8                      9
                     A'                     A'                     A'
 Frequencies --    862.8796              1026.1491              1114.6579
 Red. masses --      2.1668                 3.1237                 1.6980
 Frc consts  --      0.9505                 1.9379                 1.2430
 IR Inten    --     13.8162                17.2303                 5.1176

                     10                     11                     12
                     A'                     A"                     A"
 Frequencies --   1147.0336              1165.3884              1195.8360
 Red. masses --      6.6358                 1.3159                 1.4967
 Frc consts  --      5.1439                 1.0529                 1.2611
 IR Inten    --    159.3600                 0.0163                 9.8862

                     13                     14                     15
                     A'                     A"                     A'
 Frequencies --   1232.9688              1298.2906              1401.4962
 Red. masses --      1.7186                 1.1038                 1.2223
 Frc consts  --      1.5393                 1.0962                 1.4146
 IR Inten    --     33.4819                 1.8908                 2.5178

                     16                     17                     18
                     A'                     A'                     A"
 Frequencies --   1424.1372              1477.0082              1482.4443
 Red. masses --      1.3489                 1.1604                 1.0396
 Frc consts  --      1.6119                 1.4914                 1.3461
 IR Inten    --     28.4792                 0.0589                 4.2325

                     19                     20                     21
                     A"                     A'                     A'
 Frequencies --   1486.1250              1498.3633              1504.2072
 Red. masses --      1.0455                 1.0571                 1.0501
 Frc consts  --      1.3604                 1.3983                 1.3999
 IR Inten    --      8.1622                 6.8663                 3.4493

                     22                     23                     24
                     A'                     A'                     A'
 Frequencies --   1528.0050              2954.1203              2972.7436
 Red. masses --      1.0890                 1.0522                 1.0388
 Frc consts  --      1.4980                 5.4102                 5.4089
 IR Inten    --      2.1935                40.5761                89.3560

                     25                     26                     27
                     A"                     A"                     A'
 Frequencies --   2976.7172              3011.2968              3040.0237
 Red. masses --      1.1061                 1.1040                 1.0347
 Frc consts  --      5.7748                 5.8982                 5.6343
 IR Inten    --     66.6403                60.1616                18.0940

                     28                     29                     30
                     A'                     A"                     A'
 Frequencies --   3105.3068              3110.5098              3113.8969
 Red. masses --      1.1012                 1.1031                 1.0955
 Frc consts  --      6.2567                 6.2885                 6.2585
 IR Inten    --     26.1322                28.5111                27.4639

 - Thermochemistry -
 -------------------
 Temperature   298.150 Kelvin.  Pressure   1.00000 Atm.
 Atom     1 has atomic number  6 and mass  12.00000

 Molecular mass:    60.05751 amu.
 Principal axes and moments of inertia in atomic units:
                           1         2         3
     Eigenvalues --    63.37283 436.61768 466.10604
           X            0.70234   0.71184   0.00000
           Y            0.71184  -0.70234   0.00000
           Z           -0.00000   0.00000   1.00000
 This molecule is an asymmetric top.
 Rotational symmetry number  1.
 Rotational temperatures (Kelvin)      1.36674     0.19837     0.18582
 Rotational constants (GHZ):          28.47815     4.13346     3.87195
 Zero-point vibrational energy     282822.8 (Joules/Mol)
                                   67.59628 (Kcal/Mol)
 Warning -- explicit consideration of   5 degrees of freedom as
           vibrations may cause significant error
 Vibrational temperatures:    164.76   296.27   369.38   414.06   668.97
          (Kelvin)           1186.66  1241.49  1476.40  1603.74  1650.33
                             1676.73  1720.54  1773.97  1867.95  2016.44
                             2049.02  2125.09  2132.91  2138.20  2155.81
                             2164.22  2198.46  4250.32  4277.11  4282.83
                             4332.58  4373.92  4467.84  4475.33  4480.20

 Zero-point correction=                           0.107722 (Hartree/Particle)
 Thermal correction to Energy=                    0.113294
 Thermal correction to Enthalpy=                  0.114239
 Thermal correction to Gibbs Free Energy=         0.079903
 Sum of electronic and zero-point Energies=           -194.322942
 Sum of electronic and thermal Energies=              -194.317369
 Sum of electronic and thermal Enthalpies=            -194.316425
 Sum of electronic and thermal Free Energies=         -194.350761

                     E (Thermal)             CV                S
                      KCal/Mol        Cal/Mol-Kelvin    Cal/Mol-Kelvin
 Total                   71.093             17.959             72.266
 Electronic               0.000              0.000              0.000
 Translational            0.889              2.981             38.198
 Rotational               0.889              2.981             24.071
 Vibrational             69.316             11.997              9.997
 Vibration     1          0.607              1.937              3.191
 Vibration     2          0.640              1.831              2.080
 Vibration     3          0.666              1.751              1.684
 Vibration     4          0.685              1.696              1.487
 Vibration     5          0.822              1.328              0.752

 Optimization completed.
    -- Stationary point found.
 Normal termination of Gaussian 16 at Thu Jun 16 09:14:44 2022.
