 Gaussian 16, Revision B.01,
 Gaussian 16:  ES64L-G16RevB.01 20-Dec-2017

 --------------------
 # b3lyp/gen opt freq
 --------------------

 ----------------------------
 ethyl nitrite, B3LYP/pcseg-2
 ----------------------------
 Symbolic Z-matrix:
 Charge =  0 Multiplicity = 1

 SCF Done:  E(RB3LYP) =  -284.447372481     A.U. after   14 cycles
 SCF Done:  E(RB3LYP) =  -284.447495590     A.U. after   10 cycles
 SCF Done:  E(RB3LYP) =  -284.447511626     A.U. after   10 cycles
 SCF Done:  E(RB3LYP) =  -284.447522264     A.U. after    8 cycles
 SCF Done:  E(RB3LYP) =  -284.447523559     A.U. after    7 cycles
 Optimization completed.
    -- Stationary point found.
 Normal termination of Gaussian 16 at Fri Jun 17 20:17:52 2022.

 ------------------------------------------------------------------
 #N Geom=AllCheck Guess=TCheck SCRF=Check GenChk RB3LYP/ChkBas Freq
 ------------------------------------------------------------------

 Structure from the checkpoint file:  "/wrk/irikura/Gau-21508.chk"
 ----------------------------
 ethyl nitrite, B3LYP/pcseg-2
 ----------------------------
 Charge =  0 Multiplicity = 1

                         Standard orientation:
 ---------------------------------------------------------------------
 Center     Atomic      Atomic             Coordinates (Angstroms)
 Number     Number       Type             X           Y           Z
 ---------------------------------------------------------------------
      1          6           0        0.646993   -0.564597    0.000000
      2          8           0        0.000000    0.730049    0.000000
      3          7           0       -1.393874    0.733745    0.000000
      4          6           0        2.139285   -0.315940    0.000000
      5          1           0        0.321916   -1.119333    0.881274
      6          1           0        0.321916   -1.119333   -0.881274
      7          1           0        2.667482   -1.269963    0.000000
      8          1           0        2.443020    0.243316    0.883881
      9          1           0        2.443020    0.243316   -0.883881
     10          8           0       -1.894738   -0.333923    0.000000
 ---------------------------------------------------------------------

 SCF Done:  E(RB3LYP) =  -284.447523559     A.U. after    1 cycles

 The electronic state is 1-A'.
 Alpha  occ. eigenvalues --  -19.20096 -19.19857 -14.49594 -10.24347 -10.18320
 Alpha  occ. eigenvalues --   -1.23048  -1.06376  -0.80153  -0.69600  -0.61634
 Alpha  occ. eigenvalues --   -0.56428  -0.52911  -0.50512  -0.47300  -0.42054
 Alpha  occ. eigenvalues --   -0.41135  -0.39070  -0.37466  -0.33215  -0.28649
 Alpha virt. eigenvalues --   -0.08366   0.00957   0.04460   0.05258   0.06552
 Alpha virt. eigenvalues --    0.08322   0.09345   0.12744   0.13899   0.15796
 Alpha virt. eigenvalues --    0.17265   0.19646   0.22290   0.23194   0.25041

 Mulliken charges:
               1
     1  C    0.158378
     2  O   -0.249769
     3  N    0.206170
     4  C   -0.047463
     5  H    0.038939
     6  H    0.038939
     7  H    0.026653
     8  H    0.036915
     9  H    0.036915
    10  O   -0.245675
 Sum of Mulliken charges =  -0.00000

 Dipole moment (field-independent basis, Debye):
    X=              2.1351    Y=             -1.3797    Z=              0.0000  Tot=              2.5421
 Quadrupole moment (field-independent basis, Debye-Ang):
   XX=            -31.6251   YY=            -31.4801   ZZ=            -28.6220
   XY=             -0.9805   XZ=              0.0000   YZ=             -0.0000

  Exact polarizability:  56.393  -0.371  39.115   0.000  -0.000  32.861
 Approx polarizability:  77.848   7.396  60.753  -0.000   0.000  46.626

                      1                      2                      3
                     A"                     A"                     A'
 Frequencies --     83.0223               231.0565               250.5142
 Red. masses --      2.7316                 1.1668                 4.3030
 Frc consts  --      0.0111                 0.0367                 0.1591
 IR Inten    --      0.3270                 0.0416                 1.1364

                      4                      5                      6
                     A"                     A'                     A'
 Frequencies --    366.7235               369.4171               728.4641
 Red. masses --      4.8316                 3.8901                 8.7860
 Frc consts  --      0.3828                 0.3128                 2.7470
 IR Inten    --      1.5691                 2.1403               200.0025

                      7                      8                      9
                     A'                     A"                     A'
 Frequencies --    811.0709               820.3608               946.2699
 Red. masses --      4.3937                 1.0967                 3.2783
 Frc consts  --      1.7029                 0.4349                 1.7295
 IR Inten    --     46.0993                 0.9516               130.5408

                     10                     11                     12
                     A'                     A'                     A"
 Frequencies --   1017.6607              1139.7725              1170.3794
 Red. masses --      3.1056                 2.2883                 1.5264
 Frc consts  --      1.8950                 1.7514                 1.2319
 IR Inten    --     30.0381                 8.1336                 3.8847

                     13                     14                     15
                     A"                     A'                     A'
 Frequencies --   1287.4105              1384.7073              1422.3245
 Red. masses --      1.1197                 1.3244                 1.2897
 Frc consts  --      1.0934                 1.4961                 1.5372
 IR Inten    --      0.7335                11.1371                 6.1612

                     16                     17                     18
                     A"                     A'                     A'
 Frequencies --   1487.5178              1495.6877              1511.2966
 Red. masses --      1.0376                 1.0508                 1.0761
 Frc consts  --      1.3527                 1.3850                 1.4481
 IR Inten    --      6.8373                 2.4479                 8.2629

                     19                     20                     21
                     A'                     A'                     A'
 Frequencies --   1674.0401              3044.3762              3045.2991
 Red. masses --     13.8499                 1.0510                 1.0405
 Frc consts  --     22.8680                 5.7390                 5.6853
 IR Inten    --    198.1615                16.0477                11.6046

                     22                     23                     24
                     A"                     A'                     A"
 Frequencies --   3081.5963              3109.9311              3121.9501
 Red. masses --      1.1075                 1.1008                 1.1043
 Frc consts  --      6.1963                 6.2730                 6.3413
 IR Inten    --      8.5324                18.2830                25.7971

 - Thermochemistry -
 -------------------
 Temperature   298.150 Kelvin.  Pressure   1.00000 Atm.
 Atom     1 has atomic number  6 and mass  12.00000

 Molecular mass:    75.03203 amu.
 Principal axes and moments of inertia in atomic units:
                           1         2         3
     Eigenvalues --    98.10762 603.25298 678.93317
           X            0.99045   0.13785   0.00000
           Y           -0.13785   0.99045   0.00000
           Z           -0.00000   0.00000   1.00000
 This molecule is an asymmetric top.
 Rotational symmetry number  1.
 Rotational temperatures (Kelvin)      0.88285     0.14358     0.12757
 Rotational constants (GHZ):          18.39553     2.99168     2.65820
 Zero-point vibrational energy     200977.7 (Joules/Mol)
                                   48.03483 (Kcal/Mol)
 Warning -- explicit consideration of   5 degrees of freedom as
           vibrations may cause significant error
 Vibrational temperatures:    119.45   332.44   360.43   527.63   531.51
          (Kelvin)           1048.10  1166.95  1180.32  1361.47  1464.19
                             1639.88  1683.91  1852.30  1992.28  2046.41
                             2140.21  2151.96  2174.42  2408.57  4380.18
                             4381.51  4433.73  4474.50  4491.79

 Zero-point correction=                           0.076548 (Hartree/Particle)
 Thermal correction to Energy=                    0.082245
 Thermal correction to Enthalpy=                  0.083189
 Thermal correction to Gibbs Free Energy=         0.047685
 Sum of electronic and zero-point Energies=           -284.370975
 Sum of electronic and thermal Energies=              -284.365279
 Sum of electronic and thermal Enthalpies=            -284.364335
 Sum of electronic and thermal Free Energies=         -284.399839

                     E (Thermal)             CV                S
                      KCal/Mol        Cal/Mol-Kelvin    Cal/Mol-Kelvin
 Total                   51.609             18.482             74.725
 Electronic               0.000              0.000              0.000
 Translational            0.889              2.981             38.862
 Rotational               0.889              2.981             25.200
 Vibrational             49.832             12.520             10.664
 Vibration     1          0.600              1.961              3.818
 Vibration     2          0.653              1.794              1.871
 Vibration     3          0.663              1.762              1.727
 Vibration     4          0.740              1.541              1.093
 Vibration     5          0.742              1.535              1.082

 Optimization completed.
    -- Stationary point found.
 Normal termination of Gaussian 16 at Fri Jun 17 20:19:15 2022.
