 Gaussian 16, Revision B.01,

 ---------------------------------------
 # b3lyp/gen opt freq CPHF(Grid=OneStep)
 ---------------------------------------

 ----------------------------
 ethyl nitrite, B3LYP/pcseg-2
 ----------------------------
 Symbolic Z-matrix:
 Charge =  0 Multiplicity = 1

 SCF Done:  E(RB3LYP) =  -284.447523559     A.U. after   13 cycles
 Optimization completed.
    -- Stationary point found.
 Normal termination of Gaussian 16 at Thu Sep 28 14:14:01 2023.

 ------------------------------------------------------------------
 #N Geom=AllCheck Guess=TCheck SCRF=Check GenChk RB3LYP/ChkBas Freq
 ------------------------------------------------------------------

 Structure from the checkpoint file:  "etono.chk"
 ----------------------------
 ethyl nitrite, B3LYP/pcseg-2
 ----------------------------
 Charge =  0 Multiplicity = 1

 SCF Done:  E(RB3LYP) =  -284.447523559     A.U. after    1 cycles

  Exact polarizability:  56.394  -0.371  39.115   0.000  -0.000  32.860
 Approx polarizability:  77.848   7.396  60.753  -0.000  -0.000  46.626

                      1                      2                      3
                     A"                     A"                     A'
 Frequencies --     83.0199               231.0601               250.5132
 Red. masses --      2.7316                 1.1668                 4.3030
 Frc consts  --      0.0111                 0.0367                 0.1591
 IR Inten    --      0.3270                 0.0416                 1.1360

                      4                      5                      6
                     A"                     A'                     A'
 Frequencies --    366.7169               369.4180               728.4602
 Red. masses --      4.8313                 3.8900                 8.7857
 Frc consts  --      0.3828                 0.3128                 2.7469
 IR Inten    --      1.5689                 2.1397               200.0141

                      7                      8                      9
                     A'                     A"                     A'
 Frequencies --    811.0754               820.3587               946.2695
 Red. masses --      4.3937                 1.0967                 3.2783
 Frc consts  --      1.7029                 0.4349                 1.7295
 IR Inten    --     46.1000                 0.9516               130.5369

                     10                     11                     12
                     A'                     A'                     A"
 Frequencies --   1017.6646              1139.7644              1170.3799
 Red. masses --      3.1057                 2.2883                 1.5264
 Frc consts  --      1.8951                 1.7514                 1.2319
 IR Inten    --     30.0357                 8.1342                 3.8846

                     13                     14                     15
                     A"                     A'                     A'
 Frequencies --   1287.4085              1384.7105              1422.3277
 Red. masses --      1.1197                 1.3243                 1.2897
 Frc consts  --      1.0934                 1.4961                 1.5372
 IR Inten    --      0.7334                11.1366                 6.1592

                     16                     17                     18
                     A"                     A'                     A'
 Frequencies --   1487.5246              1495.6884              1511.2974
 Red. masses --      1.0376                 1.0508                 1.0761
 Frc consts  --      1.3527                 1.3850                 1.4481
 IR Inten    --      6.8378                 2.4484                 8.2625

                     19                     20                     21
                     A'                     A'                     A'
 Frequencies --   1674.0388              3044.3748              3045.3005
 Red. masses --     13.8499                 1.0510                 1.0405
 Frc consts  --     22.8680                 5.7392                 5.6851
 IR Inten    --    198.1486                16.0299                11.6237

                     22                     23                     24
                     A"                     A'                     A"
 Frequencies --   3081.5879              3109.9327              3121.9539
 Red. masses --      1.1075                 1.1008                 1.1043
 Frc consts  --      6.1963                 6.2730                 6.3413
 IR Inten    --      8.5371                18.2801                25.7915

 - Thermochemistry -
 -------------------
 Temperature   298.150 Kelvin.  Pressure   1.00000 Atm.
 Atom     1 has atomic number  6 and mass  12.00000

 Molecular mass:    75.03203 amu.
 Principal axes and moments of inertia in atomic units:
                           1         2         3
     Eigenvalues --    98.10762 603.25316 678.93335
           X            0.99045   0.13785   0.00000
           Y           -0.13785   0.99045   0.00000
           Z           -0.00000   0.00000   1.00000
 This molecule is an asymmetric top.
 Rotational symmetry number  1.
 Rotational temperatures (Kelvin)      0.88285     0.14358     0.12757
 Rotational constants (GHZ):          18.39552     2.99168     2.65820
 Zero-point vibrational energy     200977.7 (Joules/Mol)
                                   48.03482 (Kcal/Mol)
 Warning -- explicit consideration of   5 degrees of freedom as
           vibrations may cause significant error
 Vibrational temperatures:    119.45   332.44   360.43   527.62   531.51
          (Kelvin)           1048.09  1166.96  1180.31  1361.47  1464.19
                             1639.87  1683.92  1852.29  1992.29  2046.41
                             2140.22  2151.96  2174.42  2408.57  4380.18
                             4381.51  4433.72  4474.50  4491.80

 Zero-point correction=                           0.076548 (Hartree/Particle)
 Thermal correction to Energy=                    0.082245
 Thermal correction to Enthalpy=                  0.083189
 Thermal correction to Gibbs Free Energy=         0.047684
 Sum of electronic and zero-point Energies=           -284.370975
 Sum of electronic and thermal Energies=              -284.365279
 Sum of electronic and thermal Enthalpies=            -284.364335
 Sum of electronic and thermal Free Energies=         -284.399839

                     E (Thermal)             CV                S
                      KCal/Mol        Cal/Mol-Kelvin    Cal/Mol-Kelvin
 Total                   51.609             18.482             74.725
 Electronic               0.000              0.000              0.000
 Translational            0.889              2.981             38.862
 Rotational               0.889              2.981             25.200
 Vibrational             49.832             12.520             10.664
 Vibration     1          0.600              1.961              3.818
 Vibration     2          0.653              1.794              1.871
 Vibration     3          0.663              1.762              1.727
 Vibration     4          0.740              1.541              1.093
 Vibration     5          0.742              1.535              1.082

 Optimization completed.
    -- Stationary point found.
 Normal termination of Gaussian 16 at Thu Sep 28 14:19:22 2023.
 Gaussian 16:  ES64L-G16RevB.01 20-Dec-2017

 ---------------------------------
 # rohf/gen geom=check guess=check
 ---------------------------------

 -------------------------------
 ethyl nitrite, ROHF/cc-pVTZ-F12
 -------------------------------
 Structure from the checkpoint file:  "etono.chk"
 Charge =  0 Multiplicity = 1

                         Standard orientation:
 ---------------------------------------------------------------------
 Center     Atomic      Atomic             Coordinates (Angstroms)
 Number     Number       Type             X           Y           Z
 ---------------------------------------------------------------------
      1          6           0        0.646993   -0.564597    0.000000
      2          8           0        0.000000    0.730049    0.000000
      3          7           0       -1.393874    0.733745    0.000000
      4          6           0        2.139285   -0.315940    0.000000
      5          1           0        0.321916   -1.119333    0.881274
      6          1           0        0.321916   -1.119333   -0.881274
      7          1           0        2.667482   -1.269963    0.000000
      8          1           0        2.443020    0.243316    0.883881
      9          1           0        2.443020    0.243316   -0.883881
     10          8           0       -1.894738   -0.333923    0.000000
 ---------------------------------------------------------------------

 SCF Done:  E(ROHF) =  -282.831876041     A.U. after   13 cycles

 The electronic state is 1-A'.
 Alpha  occ. eigenvalues --  -20.64491 -20.62677 -15.78058 -11.29728 -11.23243
 Alpha  occ. eigenvalues --   -1.59412  -1.39721  -1.06218  -0.93858  -0.84213
 Alpha  occ. eigenvalues --   -0.76077  -0.71400  -0.70630  -0.62568  -0.58071
 Alpha  occ. eigenvalues --   -0.56616  -0.53748  -0.52659  -0.47749  -0.45075
 Alpha virt. eigenvalues --    0.04609   0.05671   0.06493   0.06633   0.09092
 Alpha virt. eigenvalues --    0.09428   0.09719   0.09881   0.12202   0.13371
 Alpha virt. eigenvalues --    0.14398   0.16266   0.17282   0.18727   0.20336

 Mulliken charges and spin densities:
               1          2
     1  C    0.087256   0.000000
     2  O   -0.319589   0.000000
     3  N    0.263470   0.000000
     4  C   -0.271930   0.000000
     5  H    0.115472   0.000000
     6  H    0.115472   0.000000
     7  H    0.102046   0.000000
     8  H    0.102019   0.000000
     9  H    0.102019   0.000000
    10  O   -0.296235   0.000000
 Sum of Mulliken charges =  -0.00000   0.00000

 Dipole moment (field-independent basis, Debye):
    X=              1.9359    Y=             -1.2871    Z=              0.0000  Tot=              2.3247
 Quadrupole moment (field-independent basis, Debye-Ang):
   XX=            -31.3336   YY=            -31.1137   ZZ=            -28.4831
   XY=             -1.2812   XZ=              0.0000   YZ=             -0.0000

 Normal termination of Gaussian 16 at Thu Sep 28 14:21:49 2023.
