 Gaussian 16, Revision B.01,
 Gaussian 16:  ES64L-G16RevB.01 20-Dec-2017

 --------------------
 # b3lyp/gen opt freq
 --------------------

 ----------------------------
 fluorine atom, B3LYP/pcseg-2
 ----------------------------
 Symbolic Z-matrix:
 Charge =  0 Multiplicity = 2

 SCF Done:  E(UB3LYP) =  -99.7689209571     A.U. after    9 cycles
 Optimization completed.
    -- Stationary point found.
 Normal termination of Gaussian 16 at Thu Feb  3 12:21:00 2022.

 ------------------------------------------------------------------
 #N Geom=AllCheck Guess=TCheck SCRF=Check GenChk UB3LYP/ChkBas Freq
 ------------------------------------------------------------------

 Structure from the checkpoint file:  "/wrk/irikura/Gau-23226.chk"
 ----------------------------
 fluorine atom, B3LYP/pcseg-2
 ----------------------------
 Charge =  0 Multiplicity = 2

                         Standard orientation:
 ---------------------------------------------------------------------
 Center     Atomic      Atomic             Coordinates (Angstroms)
 Number     Number       Type             X           Y           Z
 ---------------------------------------------------------------------
      1          9           0        0.000000    0.000000    0.000000
 ---------------------------------------------------------------------

 SCF Done:  E(UB3LYP) =  -99.7689209571     A.U. after    1 cycles

 Unable to determine electronic state:  an orbital has unidentified symmetry.
 Alpha  occ. eigenvalues --  -24.78747  -1.23726  -0.56994  -0.48207  -0.48207
 Alpha virt. eigenvalues --    0.38625   0.41015   0.41126   0.41126   1.74103
 Alpha virt. eigenvalues --    1.75576   1.75576   1.80203   1.80203   2.67978
 Alpha virt. eigenvalues --    2.74692   2.74692   3.88041   4.28284   4.29074

  Beta  occ. eigenvalues --  -24.75496  -1.14598  -0.45096  -0.45096
  Beta virt. eigenvalues --   -0.27720   0.41787   0.41787   0.42921   0.43737
  Beta virt. eigenvalues --    1.80844   1.80844   1.81386   1.81386   1.82384
  Beta virt. eigenvalues --    2.76928   2.76928   2.80907   3.93258   4.35116

 Mulliken charges and spin densities:
               1          2
     1  F   -0.000000   1.000000
 Sum of Mulliken charges =  -0.00000   1.00000

 Dipole moment (field-independent basis, Debye):
    X=              0.0000    Y=              0.0000    Z=              0.0000  Tot=              0.0000
 Quadrupole moment (field-independent basis, Debye-Ang):
   XX=             -5.0534   YY=             -4.1351   ZZ=             -5.0534
   XY=             -0.0000   XZ=              0.0000   YZ=              0.0000

  Exact polarizability:   1.999   0.000   2.004   0.000   0.000   1.999
 Approx polarizability:   2.114  -0.000   2.365  -0.000  -0.000   2.114

 - Thermochemistry -
 -------------------
 Temperature   298.150 Kelvin.  Pressure   1.00000 Atm.
 Atom     1 has atomic number  9 and mass  18.99840
 Molecular mass:    18.99840 amu.
 Zero-point vibrational energy          0.0 (Joules/Mol)
                                    0.00000 (Kcal/Mol)
 Vibrational temperatures:
          (Kelvin)

 Zero-point correction=                           0.000000 (Hartree/Particle)
 Thermal correction to Energy=                    0.001416
 Thermal correction to Enthalpy=                  0.002360
 Thermal correction to Gibbs Free Energy=        -0.014813
 Sum of electronic and zero-point Energies=            -99.768921
 Sum of electronic and thermal Energies=               -99.767505
 Sum of electronic and thermal Enthalpies=             -99.766560
 Sum of electronic and thermal Free Energies=          -99.783734

                     E (Thermal)             CV                S
                      KCal/Mol        Cal/Mol-Kelvin    Cal/Mol-Kelvin
 Total                    0.889              2.981             36.145
 Electronic               0.000              0.000              1.377
 Translational            0.889              2.981             34.767
 Rotational               0.000              0.000              0.000
 Vibrational              0.000              0.000              0.000

 Optimization completed.
    -- Stationary point found.
 Normal termination of Gaussian 16 at Thu Feb  3 12:21:04 2022.
