 Gaussian 16, Revision B.01,
 Gaussian 16:  ES64L-G16RevB.01 20-Dec-2017

 --------------------
 # b3lyp/gen opt freq
 --------------------

 -----------------
 F2, B3LYP/pcseg-2
 -----------------
 Symbolic Z-matrix:
 Charge =  0 Multiplicity = 1

 SCF Done:  E(RB3LYP) =  -199.590975891     A.U. after    9 cycles
 SCF Done:  E(RB3LYP) =  -199.596877670     A.U. after    9 cycles
 SCF Done:  E(RB3LYP) =  -199.596986273     A.U. after    6 cycles
 Optimization completed.
    -- Stationary point found.
 Normal termination of Gaussian 16 at Thu Feb 24 14:38:30 2022.

 ------------------------------------------------------------------
 #N Geom=AllCheck Guess=TCheck SCRF=Check GenChk RB3LYP/ChkBas Freq
 ------------------------------------------------------------------

 Structure from the checkpoint file:  "/wrk/irikura/Gau-17645.chk"
 -----------------
 F2, B3LYP/pcseg-2
 -----------------
 Charge =  0 Multiplicity = 1

                         Standard orientation:
 ---------------------------------------------------------------------
 Center     Atomic      Atomic             Coordinates (Angstroms)
 Number     Number       Type             X           Y           Z
 ---------------------------------------------------------------------
      1          9           0        0.000000    0.000000    0.698948
      2          9           0        0.000000    0.000000   -0.698948
 ---------------------------------------------------------------------

 SCF Done:  E(RB3LYP) =  -199.596986273     A.U. after    1 cycles

 The electronic state is 1-SGG.
 Alpha  occ. eigenvalues --  -24.79522 -24.79517  -1.36402  -1.11470  -0.61621
 Alpha  occ. eigenvalues --   -0.55445  -0.55445  -0.42132  -0.42132
 Alpha virt. eigenvalues --   -0.15620   0.33819   0.39012   0.39012   0.39068
 Alpha virt. eigenvalues --    0.49381   0.49381   0.49496   0.87195   1.48841
 Alpha virt. eigenvalues --    1.48841   1.66076   1.66076   1.90895   1.90896

 Mulliken charges:
               1
     1  F   -0.000000
     2  F   -0.000000
 Sum of Mulliken charges =  -0.00000

 Dipole moment (field-independent basis, Debye):
    X=             -0.0000    Y=              0.0000    Z=             -0.0000  Tot=              0.0000
 Quadrupole moment (field-independent basis, Debye-Ang):
   XX=             -9.7209   YY=             -9.7209   ZZ=             -9.0012
   XY=              0.0000   XZ=              0.0000   YZ=              0.0000

  Exact polarizability:   3.709   0.000   3.709  -0.000   0.000  11.323
 Approx polarizability:   4.239  -0.000   4.239  -0.000  -0.000  19.369

                      1
                     SGG
 Frequencies --   1047.9698
 Red. masses --     18.9984
 Frc consts  --     12.2932
 IR Inten    --      0.0000

 - Thermochemistry -
 -------------------
 Temperature   298.150 Kelvin.  Pressure   1.00000 Atm.
 Atom     1 has atomic number  9 and mass  18.99840

 Molecular mass:    37.99681 amu.
 Principal axes and moments of inertia in atomic units:
                           1         2         3
     Eigenvalues --    -0.00000  66.28803  66.28803
           X           -0.00000   1.00000  -0.00000
           Y            0.00000   0.00000   1.00000
           Z            1.00000   0.00000  -0.00000
 This molecule is a prolate symmetric top.
 Rotational symmetry number  2.
 Rotational temperature (Kelvin)      1.30663
 Rotational constant (GHZ):          27.225748
 Zero-point vibrational energy       6268.3 (Joules/Mol)
                                    1.49815 (Kcal/Mol)
 Vibrational temperatures:   1507.79
          (Kelvin)

 Zero-point correction=                           0.002387 (Hartree/Particle)
 Thermal correction to Energy=                    0.004778
 Thermal correction to Enthalpy=                  0.005723
 Thermal correction to Gibbs Free Energy=        -0.017232
 Sum of electronic and zero-point Energies=           -199.594599
 Sum of electronic and thermal Energies=              -199.592208
 Sum of electronic and thermal Enthalpies=            -199.591264
 Sum of electronic and thermal Free Energies=         -199.614218

                     E (Thermal)             CV                S
                      KCal/Mol        Cal/Mol-Kelvin    Cal/Mol-Kelvin
 Total                    2.999              5.296             48.311
 Electronic               0.000              0.000              0.000
 Translational            0.889              2.981             36.834
 Rotational               0.592              1.987             11.401
 Vibrational              1.517              0.328              0.077

 Optimization completed.
    -- Stationary point found.
 Normal termination of Gaussian 16 at Thu Feb 24 14:38:38 2022.
