 Gaussian 16, Revision B.01,

 ---------------------------------------
 # b3lyp/gen opt freq CPHF(Grid=OneStep)
 ---------------------------------------

 ------------------
 F2O, B3LYP/pcseg-2
 ------------------
 Symbolic Z-matrix:
 Charge =  0 Multiplicity = 1

 SCF Done:  E(RB3LYP) =  -274.782210517     A.U. after   11 cycles
 Optimization completed.
    -- Stationary point found.
 Normal termination of Gaussian 16 at Sat Sep 30 10:53:39 2023.

 ------------------------------------------------------------------
 #N Geom=AllCheck Guess=TCheck SCRF=Check GenChk RB3LYP/ChkBas Freq
 ------------------------------------------------------------------

 Structure from the checkpoint file:  "f2o.chk"
 ------------------
 F2O, B3LYP/pcseg-2
 ------------------
 Charge =  0 Multiplicity = 1

 SCF Done:  E(RB3LYP) =  -274.782210517     A.U. after    1 cycles

  Exact polarizability:   6.484   0.000  18.266   0.000  -0.000  10.913
 Approx polarizability:   7.736   0.000  29.257   0.000   0.000  17.265

                      1                      2                      3
                     A1                     B2                     A1
 Frequencies --    479.8323               888.0335              1015.2473
 Red. masses --     18.5023                17.0868                17.1879
 Frc consts  --      2.5099                 7.9391                10.4380
 IR Inten    --      0.8347               110.9424                12.4985

 - Thermochemistry -
 -------------------
 Temperature   298.150 Kelvin.  Pressure   1.00000 Atm.
 Atom     1 has atomic number  8 and mass  15.99491

 Molecular mass:    53.99172 amu.
 Principal axes and moments of inertia in atomic units:
                           1         2         3
     Eigenvalues --    30.02239 165.65275 195.67513
           X            0.00000   0.00000   1.00000
           Y            1.00000   0.00000  -0.00000
           Z            0.00000   1.00000   0.00000
 This molecule is an asymmetric top.
 Rotational symmetry number  2.
 Rotational temperatures (Kelvin)      2.88498     0.52286     0.44264
 Rotational constants (GHZ):          60.11318    10.89473     9.22315
 Zero-point vibrational energy      14254.2 (Joules/Mol)
                                    3.40683 (Kcal/Mol)
 Warning -- explicit consideration of   1 degrees of freedom as
           vibrations may cause significant error
 Vibrational temperatures:    690.37  1277.68  1460.71
          (Kelvin)

 Zero-point correction=                           0.005429 (Hartree/Particle)
 Thermal correction to Energy=                    0.008592
 Thermal correction to Enthalpy=                  0.009537
 Thermal correction to Gibbs Free Energy=        -0.018473
 Sum of electronic and zero-point Energies=           -274.776781
 Sum of electronic and thermal Energies=              -274.773618
 Sum of electronic and thermal Enthalpies=            -274.772674
 Sum of electronic and thermal Free Energies=         -274.800684

                     E (Thermal)             CV                S
                      KCal/Mol        Cal/Mol-Kelvin    Cal/Mol-Kelvin
 Total                    5.392              8.134             58.951
 Electronic               0.000              0.000              0.000
 Translational            0.889              2.981             37.881
 Rotational               0.889              2.981             20.126
 Vibrational              3.614              2.172              0.945
 Vibration     1          0.836              1.295              0.711

 Optimization completed.
    -- Stationary point found.
 Normal termination of Gaussian 16 at Sat Sep 30 10:53:53 2023.
 Gaussian 16:  ES64L-G16RevB.01 20-Dec-2017

 ---------------------------------
 # rohf/gen geom=check guess=check
 ---------------------------------

 ---------------------
 F2O, ROHF/cc-pVTZ-F12
 ---------------------
 Structure from the checkpoint file:  "f2o.chk"
 Charge =  0 Multiplicity = 1

                         Standard orientation:
 ---------------------------------------------------------------------
 Center     Atomic      Atomic             Coordinates (Angstroms)
 Number     Number       Type             X           Y           Z
 ---------------------------------------------------------------------
      1          8           0       -0.000000    0.000000    0.598304
      2          9           0        0.000000    1.104910   -0.265913
      3          9           0       -0.000000   -1.104910   -0.265913
 ---------------------------------------------------------------------

 SCF Done:  E(ROHF) =  -273.581011558     A.U. after   11 cycles

 The electronic state is 1-A1.
 Alpha  occ. eigenvalues --  -26.40059 -26.40057 -20.82174  -1.75373  -1.63717
 Alpha  occ. eigenvalues --   -1.28464  -0.82124  -0.80244  -0.80075  -0.72394
 Alpha  occ. eigenvalues --   -0.68073  -0.65387  -0.58117
 Alpha virt. eigenvalues --    0.08442   0.09638   0.11576   0.13735   0.15578
 Alpha virt. eigenvalues --    0.19118   0.19767   0.20587   0.20863   0.20943
 Alpha virt. eigenvalues --    0.24738   0.26496   0.38018   0.41528   0.64685

 Mulliken charges and spin densities:
               1          2
     1  O    0.186433   0.000000
     2  F   -0.093216   0.000000
     3  F   -0.093216   0.000000
 Sum of Mulliken charges =  -0.00000   0.00000

 Dipole moment (field-independent basis, Debye):
    X=              0.0000    Y=              0.0000    Z=              0.4180  Tot=              0.4180
 Quadrupole moment (field-independent basis, Debye-Ang):
   XX=            -14.7238   YY=            -14.8655   ZZ=            -14.2855
   XY=             -0.0000   XZ=             -0.0000   YZ=              0.0000

 Normal termination of Gaussian 16 at Sat Sep 30 10:53:58 2023.
