 Gaussian 16, Revision B.01,
 Gaussian 16:  ES64L-G16RevB.01 20-Dec-2017

 --------------------
 # b3lyp/gen opt freq
 --------------------

 ------------------
 F2O, B3LYP/pcseg-2
 ------------------
 Symbolic Z-matrix:
 Charge =  0 Multiplicity = 1

 SCF Done:  E(RB3LYP) =  -274.771618782     A.U. after   11 cycles
 SCF Done:  E(RB3LYP) =  -274.781733279     A.U. after   10 cycles
 SCF Done:  E(RB3LYP) =  -274.782210517     A.U. after   10 cycles
 Optimization completed.
    -- Stationary point found.
 Normal termination of Gaussian 16 at Wed Feb  2 17:53:38 2022.

 ------------------------------------------------------------------
 #N Geom=AllCheck Guess=TCheck SCRF=Check GenChk RB3LYP/ChkBas Freq
 ------------------------------------------------------------------

 Structure from the checkpoint file:  "/wrk/irikura/Gau-15476.chk"
 ------------------
 F2O, B3LYP/pcseg-2
 ------------------
 Charge =  0 Multiplicity = 1

                         Standard orientation:
 ---------------------------------------------------------------------
 Center     Atomic      Atomic             Coordinates (Angstroms)
 Number     Number       Type             X           Y           Z
 ---------------------------------------------------------------------
      1          8           0       -0.000000    0.000000    0.598304
      2          9           0       -0.000000    1.104910   -0.265913
      3          9           0       -0.000000   -1.104910   -0.265913
 ---------------------------------------------------------------------

 SCF Done:  E(RB3LYP) =  -274.782210517     A.U. after    1 cycles

 The electronic state is 1-A1.
 Alpha  occ. eigenvalues --  -24.77186 -24.77186 -19.35938  -1.35371  -1.24411
 Alpha  occ. eigenvalues --   -0.95791  -0.63373  -0.58729  -0.56387  -0.47660
 Alpha  occ. eigenvalues --   -0.46382  -0.45882  -0.35386
 Alpha virt. eigenvalues --   -0.11080  -0.07626   0.27641   0.28048   0.30428
 Alpha virt. eigenvalues --    0.31410   0.41943   0.43054   0.46801   0.46864
 Alpha virt. eigenvalues --    0.48460   0.56049   0.78389   0.87712   1.23304

 Mulliken charges:
               1
     1  O    0.160783
     2  F   -0.080392
     3  F   -0.080392
 Sum of Mulliken charges =  -0.00000

 Dipole moment (field-independent basis, Debye):
    X=              0.0000    Y=              0.0000    Z=              0.3258  Tot=              0.3258
 Quadrupole moment (field-independent basis, Debye-Ang):
   XX=            -15.1009   YY=            -15.0357   ZZ=            -14.5320
   XY=             -0.0000   XZ=             -0.0000   YZ=              0.0000

  Exact polarizability:   6.485   0.000  18.266   0.000  -0.000  10.913
 Approx polarizability:   7.736   0.000  29.257   0.000  -0.000  17.265

                      1                      2                      3
                     A1                     B2                     A1
 Frequencies --    479.8306               888.0273              1015.2578
 Red. masses --     18.5023                17.0868                17.1879
 Frc consts  --      2.5099                 7.9390                10.4382
 IR Inten    --      0.8347               110.9407                12.4999

 - Thermochemistry -
 -------------------
 Temperature   298.150 Kelvin.  Pressure   1.00000 Atm.
 Atom     1 has atomic number  8 and mass  15.99491

 Molecular mass:    53.99172 amu.
 Principal axes and moments of inertia in atomic units:
                           1         2         3
     Eigenvalues --    30.02237 165.65278 195.67515
           X            0.00000   0.00000   1.00000
           Y            1.00000   0.00000  -0.00000
           Z           -0.00000   1.00000  -0.00000
 This molecule is an asymmetric top.
 Rotational symmetry number  2.
 Rotational temperatures (Kelvin)      2.88498     0.52286     0.44264
 Rotational constants (GHZ):          60.11321    10.89472     9.22315
 Zero-point vibrational energy      14254.2 (Joules/Mol)
                                    3.40683 (Kcal/Mol)
 Warning -- explicit consideration of   1 degrees of freedom as
           vibrations may cause significant error
 Vibrational temperatures:    690.37  1277.67  1460.73
          (Kelvin)

 Zero-point correction=                           0.005429 (Hartree/Particle)
 Thermal correction to Energy=                    0.008592
 Thermal correction to Enthalpy=                  0.009537
 Thermal correction to Gibbs Free Energy=        -0.018473
 Sum of electronic and zero-point Energies=           -274.776781
 Sum of electronic and thermal Energies=              -274.773618
 Sum of electronic and thermal Enthalpies=            -274.772674
 Sum of electronic and thermal Free Energies=         -274.800684

                     E (Thermal)             CV                S
                      KCal/Mol        Cal/Mol-Kelvin    Cal/Mol-Kelvin
 Total                    5.392              8.134             58.951
 Electronic               0.000              0.000              0.000
 Translational            0.889              2.981             37.881
 Rotational               0.889              2.981             20.126
 Vibrational              3.614              2.172              0.945
 Vibration     1          0.836              1.295              0.711

 Optimization completed.
    -- Stationary point found.
 Normal termination of Gaussian 16 at Wed Feb  2 17:54:05 2022.
