 Gaussian 16, Revision B.01,
 Gaussian 16:  ES64L-G16RevB.01 20-Dec-2017

 --------------------
 # b3lyp/gen opt freq
 --------------------

 ------------------------------
 2-fluoroethanol, B3LYP/pcseg-2
 ------------------------------
 Symbolic Z-matrix:
 Charge =  0 Multiplicity = 1

 SCF Done:  E(RB3LYP) =  -254.389983421     A.U. after   11 cycles
 SCF Done:  E(RB3LYP) =  -254.390512466     A.U. after   10 cycles
 SCF Done:  E(RB3LYP) =  -254.390598217     A.U. after   10 cycles
 SCF Done:  E(RB3LYP) =  -254.390617960     A.U. after    9 cycles
 SCF Done:  E(RB3LYP) =  -254.390627388     A.U. after    8 cycles
 SCF Done:  E(RB3LYP) =  -254.390629853     A.U. after    7 cycles
 Optimization completed.
    -- Stationary point found.
 Normal termination of Gaussian 16 at Thu Jun 16 14:11:04 2022.

 ------------------------------------------------------------------
 #N Geom=AllCheck Guess=TCheck SCRF=Check GenChk RB3LYP/ChkBas Freq
 ------------------------------------------------------------------

 Structure from the checkpoint file:  "/wrk/irikura/Gau-5388.chk"
 ------------------------------
 2-fluoroethanol, B3LYP/pcseg-2
 ------------------------------
 Charge =  0 Multiplicity = 1

                         Standard orientation:
 ---------------------------------------------------------------------
 Center     Atomic      Atomic             Coordinates (Angstroms)
 Number     Number       Type             X           Y           Z
 ---------------------------------------------------------------------
      1          6           0        0.679326    0.569442    0.288282
      2          6           0       -0.716046    0.555226   -0.285199
      3          8           0        1.475353   -0.501603   -0.189936
      4          9           0       -1.382009   -0.599765    0.156343
      5          1           0        1.177680    1.490697   -0.017099
      6          1           0        0.622807    0.563293    1.382614
      7          1           0       -1.292879    1.418273    0.051713
      8          1           0       -0.697109    0.517676   -1.374674
      9          1           0        1.045083   -1.327235    0.051351
 ---------------------------------------------------------------------

 SCF Done:  E(RB3LYP) =  -254.390629853     A.U. after    1 cycles

 The electronic state is 1-A.
 Alpha  occ. eigenvalues --  -24.66877 -19.13361 -10.25511 -10.23326  -1.19799
 Alpha  occ. eigenvalues --   -1.03491  -0.76522  -0.64297  -0.53661  -0.51239
 Alpha  occ. eigenvalues --   -0.50395  -0.45985  -0.43398  -0.38898  -0.36057
 Alpha  occ. eigenvalues --   -0.34550  -0.29326
 Alpha virt. eigenvalues --    0.01272   0.02621   0.04513   0.06090   0.07391
 Alpha virt. eigenvalues --    0.08514   0.12022   0.14403   0.16585   0.23963
 Alpha virt. eigenvalues --    0.25009   0.26187   0.30062   0.30428   0.31036

 Mulliken charges:
               1
     1  C    0.226723
     2  C    0.247635
     3  O   -0.416528
     4  F   -0.334568
     5  H    0.020181
     6  H    0.020045
     7  H    0.017824
     8  H    0.025253
     9  H    0.193434
 Sum of Mulliken charges =  -0.00000

 Dipole moment (field-independent basis, Debye):
    X=             -0.4231    Y=              1.3988    Z=              0.2746  Tot=              1.4870
 Quadrupole moment (field-independent basis, Debye-Ang):
   XX=            -29.7454   YY=            -21.1367   ZZ=            -23.8710
   XY=             -1.3042   XZ=              1.7156   YZ=             -0.4582

  Exact polarizability:  32.542  -0.698  32.505   0.307   0.234  29.597
 Approx polarizability:  40.262   0.338  43.756  -1.169  -0.181  39.260

                      1                      2                      3
                      A                      A                      A
 Frequencies --    147.7284               313.4339               379.0939
 Red. masses --      3.7380                 1.6686                 1.3945
 Frc consts  --      0.0481                 0.0966                 0.1181
 IR Inten    --     11.2038                34.1787                99.3557

                      4                      5                      6
                      A                      A                      A
 Frequencies --    516.0370               855.5704               893.0753
 Red. masses --      2.3778                 2.3163                 2.0508
 Frc consts  --      0.3731                 0.9990                 0.9637
 IR Inten    --     10.5200                37.3346                18.8155

                      7                      8                      9
                      A                      A                      A
 Frequencies --   1037.2362              1089.6270              1123.0900
 Red. masses --      3.1542                 3.1280                 2.1121
 Frc consts  --      1.9994                 2.1882                 1.5696
 IR Inten    --     76.9837                91.4677                 6.6105

                     10                     11                     12
                      A                      A                      A
 Frequencies --   1219.8122              1265.7675              1380.8290
 Red. masses --      1.2152                 1.1177                 1.2090
 Frc consts  --      1.0653                 1.0550                 1.3582
 IR Inten    --     15.4627                 9.3952                 3.5549

                     13                     14                     15
                      A                      A                      A
 Frequencies --   1402.4221              1424.8185              1489.3731
 Red. masses --      1.1969                 1.3784                 1.0880
 Frc consts  --      1.3870                 1.6488                 1.4220
 IR Inten    --     17.7354                25.3684                 3.6902

                     16                     17                     18
                      A                      A                      A
 Frequencies --   1494.0898              3002.8049              3045.5537
 Red. masses --      1.0940                 1.0684                 1.0571
 Frc consts  --      1.4389                 5.6762                 5.7772
 IR Inten    --      3.6696                39.6047                23.3275

                     19                     20                     21
                      A                      A                      A
 Frequencies --   3080.1453              3103.1406              3816.7998
 Red. masses --      1.0939                 1.1103                 1.0661
 Frc consts  --      6.1147                 6.2992                 9.1509
 IR Inten    --     28.3831                31.8360                41.1056

 - Thermochemistry -
 -------------------
 Temperature   298.150 Kelvin.  Pressure   1.00000 Atm.
 Atom     1 has atomic number  6 and mass  12.00000

 Molecular mass:    64.03244 amu.
 Principal axes and moments of inertia in atomic units:
                           1         2         3
     Eigenvalues --   113.00358 338.19617 402.61605
           X            0.99910  -0.03477   0.02437
           Y            0.03466   0.99939   0.00465
           Z           -0.02452  -0.00380   0.99969
 This molecule is an asymmetric top.
 Rotational symmetry number  1.
 Rotational temperatures (Kelvin)      0.76647     0.25611     0.21513
 Rotational constants (GHZ):          15.97065     5.33637     4.48254
 Zero-point vibrational energy     191883.7 (Joules/Mol)
                                   45.86130 (Kcal/Mol)
 Warning -- explicit consideration of   4 degrees of freedom as
           vibrations may cause significant error
 Vibrational temperatures:    212.55   450.96   545.43   742.46  1230.98
          (Kelvin)           1284.94  1492.35  1567.73  1615.88  1755.04
                             1821.16  1986.70  2017.77  2050.00  2142.88
                             2149.66  4320.37  4381.87  4431.64  4464.73
                             5491.52

 Zero-point correction=                           0.073085 (Hartree/Particle)
 Thermal correction to Energy=                    0.077771
 Thermal correction to Enthalpy=                  0.078716
 Thermal correction to Gibbs Free Energy=         0.045930
 Sum of electronic and zero-point Energies=           -254.317545
 Sum of electronic and thermal Energies=              -254.312858
 Sum of electronic and thermal Enthalpies=            -254.311914
 Sum of electronic and thermal Free Energies=         -254.344700

                     E (Thermal)             CV                S
                      KCal/Mol        Cal/Mol-Kelvin    Cal/Mol-Kelvin
 Total                   48.802             15.033             69.002
 Electronic               0.000              0.000              0.000
 Translational            0.889              2.981             38.389
 Rotational               0.889              2.981             24.246
 Vibrational             47.025              9.071              6.367
 Vibration     1          0.617              1.905              2.701
 Vibration     2          0.701              1.648              1.344
 Vibration     3          0.749              1.515              1.043
 Vibration     4          0.871              1.214              0.619

                           ! Non-Optimized Parameters !
 Normal termination of Gaussian 16 at Thu Jun 16 14:13:00 2022.
