 Gaussian 16, Revision B.01,

 ---------------------------------------
 # b3lyp/gen opt freq CPHF(Grid=OneStep)
 ---------------------------------------

 ------------------------------
 2-fluoroethanol, B3LYP/pcseg-2
 ------------------------------
 Symbolic Z-matrix:
 Charge =  0 Multiplicity = 1

 SCF Done:  E(RB3LYP) =  -254.390629853     A.U. after   12 cycles
 Optimization completed.
    -- Stationary point found.
 Normal termination of Gaussian 16 at Fri Sep 29 23:48:24 2023.

 ------------------------------------------------------------------
 #N Geom=AllCheck Guess=TCheck SCRF=Check GenChk RB3LYP/ChkBas Freq
 ------------------------------------------------------------------

 Structure from the checkpoint file:  "fc2h4oh.chk"
 ------------------------------
 2-fluoroethanol, B3LYP/pcseg-2
 ------------------------------
 Charge =  0 Multiplicity = 1

 SCF Done:  E(RB3LYP) =  -254.390629853     A.U. after    1 cycles

  Exact polarizability:  32.543  -0.698  32.505   0.306   0.234  29.597
 Approx polarizability:  40.262   0.338  43.756  -1.169  -0.181  39.260

                      1                      2                      3
                      A                      A                      A
 Frequencies --    147.7249               313.4256               379.0707
 Red. masses --      3.7378                 1.6683                 1.3947
 Frc consts  --      0.0481                 0.0966                 0.1181
 IR Inten    --     11.2065                34.2004                99.3373

                      4                      5                      6
                      A                      A                      A
 Frequencies --    516.0369               855.5682               893.0756
 Red. masses --      2.3778                 2.3162                 2.0508
 Frc consts  --      0.3731                 0.9989                 0.9637
 IR Inten    --     10.5217                37.3336                18.8154

                      7                      8                      9
                      A                      A                      A
 Frequencies --   1037.2369              1089.6223              1123.0907
 Red. masses --      3.1542                 3.1279                 2.1122
 Frc consts  --      1.9994                 2.1881                 1.5697
 IR Inten    --     76.9829                91.4652                 6.6127

                     10                     11                     12
                      A                      A                      A
 Frequencies --   1219.7982              1265.7642              1380.8204
 Red. masses --      1.2152                 1.1177                 1.2090
 Frc consts  --      1.0653                 1.0550                 1.3582
 IR Inten    --     15.4663                 9.3964                 3.5577

                     13                     14                     15
                      A                      A                      A
 Frequencies --   1402.4211              1424.8179              1489.3698
 Red. masses --      1.1970                 1.3784                 1.0880
 Frc consts  --      1.3870                 1.6488                 1.4220
 IR Inten    --     17.7368                25.3644                 3.6919

                     16                     17                     18
                      A                      A                      A
 Frequencies --   1494.0891              3002.8047              3045.5581
 Red. masses --      1.0940                 1.0685                 1.0571
 Frc consts  --      1.4389                 5.6762                 5.7772
 IR Inten    --      3.6691                39.6040                23.3262

                     19                     20                     21
                      A                      A                      A
 Frequencies --   3080.1470              3103.1426              3816.7868
 Red. masses --      1.0939                 1.1103                 1.0661
 Frc consts  --      6.1147                 6.2992                 9.1508
 IR Inten    --     28.3849                31.8357                41.1017

 - Thermochemistry -
 -------------------
 Temperature   298.150 Kelvin.  Pressure   1.00000 Atm.
 Atom     1 has atomic number  6 and mass  12.00000

 Molecular mass:    64.03244 amu.
 Principal axes and moments of inertia in atomic units:
                           1         2         3
     Eigenvalues --   113.00368 338.19623 402.61615
           X            0.99910  -0.03477   0.02437
           Y            0.03466   0.99939   0.00465
           Z           -0.02452  -0.00380   0.99969
 This molecule is an asymmetric top.
 Rotational symmetry number  1.
 Rotational temperatures (Kelvin)      0.76647     0.25611     0.21513
 Rotational constants (GHZ):          15.97064     5.33637     4.48254
 Zero-point vibrational energy     191883.2 (Joules/Mol)
                                   45.86119 (Kcal/Mol)
 Warning -- explicit consideration of   4 degrees of freedom as
           vibrations may cause significant error
 Vibrational temperatures:    212.54   450.95   545.40   742.46  1230.97
          (Kelvin)           1284.94  1492.35  1567.72  1615.88  1755.02
                             1821.15  1986.69  2017.77  2050.00  2142.87
                             2149.66  4320.37  4381.88  4431.64  4464.73
                             5491.50

 Zero-point correction=                           0.073084 (Hartree/Particle)
 Thermal correction to Energy=                    0.077771
 Thermal correction to Enthalpy=                  0.078715
 Thermal correction to Gibbs Free Energy=         0.045930
 Sum of electronic and zero-point Energies=           -254.317545
 Sum of electronic and thermal Energies=              -254.312859
 Sum of electronic and thermal Enthalpies=            -254.311914
 Sum of electronic and thermal Free Energies=         -254.344700

                     E (Thermal)             CV                S
                      KCal/Mol        Cal/Mol-Kelvin    Cal/Mol-Kelvin
 Total                   48.802             15.033             69.003
 Electronic               0.000              0.000              0.000
 Translational            0.889              2.981             38.389
 Rotational               0.889              2.981             24.246
 Vibrational             47.025              9.071              6.367
 Vibration     1          0.617              1.905              2.701
 Vibration     2          0.701              1.648              1.344
 Vibration     3          0.749              1.515              1.043
 Vibration     4          0.871              1.214              0.619

                           ! Non-Optimized Parameters !
 Normal termination of Gaussian 16 at Fri Sep 29 23:53:05 2023.
 Gaussian 16:  ES64L-G16RevB.01 20-Dec-2017

 ---------------------------------
 # rohf/gen geom=check guess=check
 ---------------------------------

 ---------------------------------
 2-fluoroethanol, ROHF/cc-pVTZ-F12
 ---------------------------------
 Structure from the checkpoint file:  "fc2h4oh.chk"
 Charge =  0 Multiplicity = 1

                         Standard orientation:
 ---------------------------------------------------------------------
 Center     Atomic      Atomic             Coordinates (Angstroms)
 Number     Number       Type             X           Y           Z
 ---------------------------------------------------------------------
      1          6           0        0.679326    0.569442    0.288282
      2          6           0       -0.716046    0.555226   -0.285199
      3          8           0        1.475353   -0.501603   -0.189936
      4          9           0       -1.382009   -0.599765    0.156343
      5          1           0        1.177680    1.490697   -0.017099
      6          1           0        0.622807    0.563293    1.382614
      7          1           0       -1.292879    1.418273    0.051713
      8          1           0       -0.697109    0.517676   -1.374674
      9          1           0        1.045083   -1.327235    0.051351
 ---------------------------------------------------------------------

 SCF Done:  E(ROHF) =  -253.051830624     A.U. after   10 cycles

 The electronic state is 1-A.
 Alpha  occ. eigenvalues --  -26.28117 -20.56443 -11.31424 -11.28928  -1.58923
 Alpha  occ. eigenvalues --   -1.36956  -1.02783  -0.86642  -0.72744  -0.71159
 Alpha  occ. eigenvalues --   -0.68554  -0.65653  -0.60058  -0.58137  -0.53540
 Alpha  occ. eigenvalues --   -0.50469  -0.45861
 Alpha virt. eigenvalues --    0.05112   0.05372   0.06545   0.06656   0.09217
 Alpha virt. eigenvalues --    0.09303   0.10046   0.15060   0.15839   0.17186
 Alpha virt. eigenvalues --    0.20943   0.21249   0.22863   0.22920   0.23242

 Mulliken charges and spin densities:
               1          2
     1  C    0.126142   0.000000
     2  C    0.142107   0.000000
     3  O   -0.688146   0.000000
     4  F   -0.413584   0.000000
     5  H    0.106421   0.000000
     6  H    0.094790   0.000000
     7  H    0.112516   0.000000
     8  H    0.119383   0.000000
     9  H    0.400372   0.000000
 Sum of Mulliken charges =  -0.00000   0.00000

 Dipole moment (field-independent basis, Debye):
    X=             -0.4417    Y=              1.5882    Z=              0.2619  Tot=              1.6691
 Quadrupole moment (field-independent basis, Debye-Ang):
   XX=            -29.8175   YY=            -20.8028   ZZ=            -23.4603
   XY=             -1.4348   XZ=              1.8540   YZ=             -0.4546

 Normal termination of Gaussian 16 at Fri Sep 29 23:54:33 2023.
