 Gaussian 16, Revision B.01,
 Gaussian 16:  ES64L-G16RevB.01 20-Dec-2017

 --------------------
 # b3lyp/gen opt freq
 --------------------

 --------------------------------
 cyanogen fluoride, B3LYP/pcseg-2
 --------------------------------
 Symbolic Z-matrix:
 Charge =  0 Multiplicity = 1

 SCF Done:  E(RB3LYP) =  -192.650383163     A.U. after   14 cycles
 SCF Done:  E(RB3LYP) =  -192.688841549     A.U. after   12 cycles
 SCF Done:  E(RB3LYP) =  -192.718391390     A.U. after   13 cycles
 SCF Done:  E(RB3LYP) =  -192.718398313     A.U. after    7 cycles
 Optimization completed.
    -- Stationary point found.
 Normal termination of Gaussian 16 at Mon Sep 25 14:37:13 2023.

 ------------------------------------------------------------------
 #N Geom=AllCheck Guess=TCheck SCRF=Check GenChk RB3LYP/ChkBas Freq
 ------------------------------------------------------------------

 Structure from the checkpoint file:  "/wrk/irikura/Gau-1432970.chk"
 --------------------------------
 cyanogen fluoride, B3LYP/pcseg-2
 --------------------------------
 Charge =  0 Multiplicity = 1

                         Standard orientation:
 ---------------------------------------------------------------------
 Center     Atomic      Atomic             Coordinates (Angstroms)
 Number     Number       Type             X           Y           Z
 ---------------------------------------------------------------------
      1          9           0        0.000000    0.000000    1.113819
      2          6           0        0.000000    0.000000   -0.151879
      3          7           0        0.000000    0.000000   -1.301871
 ---------------------------------------------------------------------

 SCF Done:  E(RB3LYP) =  -192.718398313     A.U. after    1 cycles

 The electronic state is 1-SG.
 Alpha  occ. eigenvalues --  -24.81276 -14.35116 -10.32428  -1.35999  -0.95122
 Alpha  occ. eigenvalues --   -0.70078  -0.57998  -0.57998  -0.40829  -0.36884
 Alpha  occ. eigenvalues --   -0.36884
 Alpha virt. eigenvalues --   -0.01807   0.02703   0.02703   0.12773   0.14739
 Alpha virt. eigenvalues --    0.14739   0.21103   0.27944   0.35104   0.35104
 Alpha virt. eigenvalues --    0.39115   0.52666   0.52666   0.61158   0.81476

 Mulliken charges:
               1
     1  F   -0.153385
     2  C    0.350384
     3  N   -0.196999
 Sum of Mulliken charges =   0.00000

 Dipole moment (field-independent basis, Debye):
    X=              0.0000    Y=              0.0000    Z=              2.2648  Tot=              2.2648
 Quadrupole moment (field-independent basis, Debye-Ang):
   XX=            -15.2325   YY=            -15.2325   ZZ=            -19.3972
   XY=              0.0000   XZ=              0.0000   YZ=              0.0000

  Exact polarizability:  11.688  -0.000  11.688   0.000   0.000  24.952
 Approx polarizability:  15.287  -0.000  15.287  -0.000  -0.000  45.462

                      1                      2                      3
                     PI                     PI                     SG
 Frequencies --    483.2918               483.2918              1092.6968
 Red. masses --     12.8023                12.8023                16.1376
 Frc consts  --      1.7618                 1.7618                11.3524
 IR Inten    --      7.6840                 7.6840                62.0257

                      4
                     SG
 Frequencies --   2408.2914
 Red. masses --     12.6983
 Frc consts  --     43.3925
 IR Inten    --    121.4729

 - Thermochemistry -
 -------------------
 Temperature   298.150 Kelvin.  Pressure   1.00000 Atm.
 Atom     1 has atomic number  9 and mass  18.99840

 Molecular mass:    45.00148 amu.
 Principal axes and moments of inertia in atomic units:
                           1         2         3
     Eigenvalues --     0.00000 169.81179 169.81179
           X            0.00000  -0.00000   1.00000
           Y            0.00000   1.00000   0.00000
           Z            1.00000   0.00000   0.00000
 This molecule is a prolate symmetric top.
 Rotational symmetry number  1.
 Rotational temperature (Kelvin)      0.51006
 Rotational constant (GHZ):          10.627891
 Zero-point vibrational energy      26722.0 (Joules/Mol)
                                    6.38671 (Kcal/Mol)
 Warning -- explicit consideration of   2 degrees of freedom as
           vibrations may cause significant error
 Vibrational temperatures:    695.35   695.35  1572.15  3464.99
          (Kelvin)

 Zero-point correction=                           0.010178 (Hartree/Particle)
 Thermal correction to Energy=                    0.013038
 Thermal correction to Enthalpy=                  0.013982
 Thermal correction to Gibbs Free Energy=        -0.011415
 Sum of electronic and zero-point Energies=           -192.708220
 Sum of electronic and thermal Energies=              -192.705361
 Sum of electronic and thermal Enthalpies=            -192.704417
 Sum of electronic and thermal Free Energies=         -192.729813

                     E (Thermal)             CV                S
                      KCal/Mol        Cal/Mol-Kelvin    Cal/Mol-Kelvin
 Total                    8.181              7.831             53.452
 Electronic               0.000              0.000              0.000
 Translational            0.889              2.981             37.338
 Rotational               0.592              1.987             14.647
 Vibrational              6.700              2.863              1.467
 Vibration     1          0.839              1.287              0.701
 Vibration     2          0.839              1.287              0.701

 Optimization completed.
    -- Stationary point found.
 Normal termination of Gaussian 16 at Mon Sep 25 14:37:20 2023.
