 Gaussian 16, Revision B.01,

 ---------------------------------------
 # b3lyp/gen opt freq CPHF(Grid=OneStep)
 ---------------------------------------

 ---------------------------
 fluoroformyl, B3LYP/pcseg-2
 ---------------------------
 Symbolic Z-matrix:
 Charge =  0 Multiplicity = 2

 SCF Done:  E(UB3LYP) =  -213.194400849     A.U. after   15 cycles
 Optimization completed.
    -- Stationary point found.
 Normal termination of Gaussian 16 at Sat Sep 30 10:03:33 2023.

 ------------------------------------------------------------------
 #N Geom=AllCheck Guess=TCheck SCRF=Check GenChk UB3LYP/ChkBas Freq
 ------------------------------------------------------------------

 Structure from the checkpoint file:  "fco.chk"
 ---------------------------
 fluoroformyl, B3LYP/pcseg-2
 ---------------------------
 Charge =  0 Multiplicity = 2

 SCF Done:  E(UB3LYP) =  -213.194400849     A.U. after    1 cycles

  Exact polarizability:  21.093   0.405  14.099  -0.000   0.000  11.495
 Approx polarizability:  34.047  -0.112  17.477  -0.000   0.000  14.761

                      1                      2                      3
                     A'                     A'                     A'
 Frequencies --    631.1814              1031.9680              1918.7708
 Red. masses --     15.6084                13.9146                13.4114
 Frc consts  --      3.6637                 8.7308                29.0918
 IR Inten    --     10.5363               202.6075               255.9364

 - Thermochemistry -
 -------------------
 Temperature   298.150 Kelvin.  Pressure   1.00000 Atm.
 Atom     1 has atomic number  9 and mass  18.99840

 Molecular mass:    46.99332 amu.
 Principal axes and moments of inertia in atomic units:
                           1         2         3
     Eigenvalues --     9.50007 157.16741 166.66748
           X            0.95388  -0.30018   0.00000
           Y            0.30018   0.95388   0.00000
           Z           -0.00000   0.00000   1.00000
 This molecule is an asymmetric top.
 Rotational symmetry number  1.
 Rotational temperatures (Kelvin)      9.11719     0.55109     0.51968
 Rotational constants (GHZ):         189.97131    11.48292    10.82839
 Zero-point vibrational energy      21424.6 (Joules/Mol)
                                    5.12061 (Kcal/Mol)
 Vibrational temperatures:    908.13  1484.77  2760.68
          (Kelvin)

 Zero-point correction=                           0.008160 (Hartree/Particle)
 Thermal correction to Energy=                    0.011170
 Thermal correction to Enthalpy=                  0.012114
 Thermal correction to Gibbs Free Energy=        -0.016145
 Sum of electronic and zero-point Energies=           -213.186241
 Sum of electronic and thermal Energies=              -213.183231
 Sum of electronic and thermal Enthalpies=            -213.182287
 Sum of electronic and thermal Free Energies=         -213.210546

                     E (Thermal)             CV                S
                      KCal/Mol        Cal/Mol-Kelvin    Cal/Mol-Kelvin
 Total                    7.009              7.288             59.476
 Electronic               0.000              0.000              1.377
 Translational            0.889              2.981             37.467
 Rotational               0.889              2.981             20.148
 Vibrational              5.232              1.326              0.483

 Optimization completed.
    -- Stationary point found.
 Normal termination of Gaussian 16 at Sat Sep 30 10:03:59 2023.
 Gaussian 16:  ES64L-G16RevB.01 20-Dec-2017

 ---------------------------------
 # rohf/gen geom=check guess=check
 ---------------------------------

 ------------------------------
 fluoroformyl, ROHF/cc-pVTZ-F12
 ------------------------------
 Structure from the checkpoint file:  "fco.chk"
 Charge =  0 Multiplicity = 2

                         Standard orientation:
 ---------------------------------------------------------------------
 Center     Atomic      Atomic             Coordinates (Angstroms)
 Number     Number       Type             X           Y           Z
 ---------------------------------------------------------------------
      1          9           0       -1.013483   -0.442938   -0.000000
      2          6           0        0.000000    0.421571    0.000000
      3          8           0        1.140168    0.182127    0.000000
 ---------------------------------------------------------------------

 SCF Done:  E(ROHF) =  -212.206091375     A.U. after   16 cycles

 The electronic state is 2-A'.
 Alpha  occ. eigenvalues --  -26.37588 -20.62996 -11.44734  -1.69229  -1.47381
 Alpha  occ. eigenvalues --   -0.88267  -0.75864  -0.75532  -0.73436  -0.59002
 Alpha  occ. eigenvalues --   -0.58721  -0.14058
 Alpha virt. eigenvalues --    0.06383   0.06404   0.07082   0.07310   0.13503
 Alpha virt. eigenvalues --    0.15946   0.17614   0.18661   0.20697   0.21671
 Alpha virt. eigenvalues --    0.23864   0.28003   0.32379   0.34981   0.42185

 Mulliken charges and spin densities:
               1          2
     1  F   -0.229571   0.031143
     2  C    0.621961   0.855170
     3  O   -0.392390   0.113687
 Sum of Mulliken charges =  -0.00000   1.00000

 Dipole moment (field-independent basis, Debye):
    X=             -1.0747    Y=              0.6778    Z=              0.0000  Tot=              1.2706
 Quadrupole moment (field-independent basis, Debye-Ang):
   XX=            -18.2250   YY=            -15.3798   ZZ=            -14.4313
   XY=             -0.7166   XZ=             -0.0000   YZ=             -0.0000

 Normal termination of Gaussian 16 at Sat Sep 30 10:04:06 2023.
