 Gaussian 16, Revision B.01,
 Gaussian 16:  ES64L-G16RevB.01 20-Dec-2017

 --------------------
 # b3lyp/gen opt freq
 --------------------

 ---------------------------
 fluoroformyl, B3LYP/pcseg-2
 ---------------------------
 Symbolic Z-matrix:
 Charge =  0 Multiplicity = 2

 SCF Done:  E(UB3LYP) =  -213.194277988     A.U. after   15 cycles
 SCF Done:  E(UB3LYP) =  -213.194376879     A.U. after   11 cycles
 SCF Done:  E(UB3LYP) =  -213.194399722     A.U. after   11 cycles
 SCF Done:  E(UB3LYP) =  -213.194400849     A.U. after    8 cycles
 Optimization completed.
    -- Stationary point found.
 Normal termination of Gaussian 16 at Thu Jun 16 08:02:20 2022.

 ------------------------------------------------------------------
 #N Geom=AllCheck Guess=TCheck SCRF=Check GenChk UB3LYP/ChkBas Freq
 ------------------------------------------------------------------

 Structure from the checkpoint file:  "/wrk/irikura/Gau-11929.chk"
 ---------------------------
 fluoroformyl, B3LYP/pcseg-2
 ---------------------------
 Charge =  0 Multiplicity = 2

                         Standard orientation:
 ---------------------------------------------------------------------
 Center     Atomic      Atomic             Coordinates (Angstroms)
 Number     Number       Type             X           Y           Z
 ---------------------------------------------------------------------
      1          9           0       -1.013482   -0.442939    0.000000
      2          6           0        0.000000    0.421571   -0.000000
      3          8           0        1.140168    0.182128   -0.000000
 ---------------------------------------------------------------------

 SCF Done:  E(UB3LYP) =  -213.194400849     A.U. after    1 cycles

 The electronic state is 2-A'.
 Alpha  occ. eigenvalues --  -24.76317 -19.21076 -10.37556  -1.30579  -1.14339
 Alpha  occ. eigenvalues --   -0.67693  -0.55271  -0.55110  -0.54740  -0.43712
 Alpha  occ. eigenvalues --   -0.43528  -0.29296
 Alpha virt. eigenvalues --   -0.05406   0.08522   0.11737   0.13594   0.14597
 Alpha virt. eigenvalues --    0.22604   0.31214   0.37304   0.39044   0.44682
 Alpha virt. eigenvalues --    0.48876   0.51294   0.52211   0.67895   0.80602

  Beta  occ. eigenvalues --  -24.75670 -19.20415 -10.36243  -1.29070  -1.12886
  Beta  occ. eigenvalues --   -0.65394  -0.53908  -0.53575  -0.52141  -0.43246
  Beta  occ. eigenvalues --   -0.40657
  Beta virt. eigenvalues --   -0.14511  -0.02829   0.09530   0.12270   0.15091
  Beta virt. eigenvalues --    0.15707   0.23924   0.31390   0.38168   0.39110
  Beta virt. eigenvalues --    0.45332   0.49146   0.52434   0.54215   0.68318

 Mulliken charges and spin densities:
               1          2
     1  F   -0.181399   0.084840
     2  C    0.400406   0.756815
     3  O   -0.219007   0.158345
 Sum of Mulliken charges =  -0.00000   1.00000

 Dipole moment (field-independent basis, Debye):
    X=             -0.7249    Y=              0.2261    Z=             -0.0000  Tot=              0.7593
 Quadrupole moment (field-independent basis, Debye-Ang):
   XX=            -17.7732   YY=            -15.7663   ZZ=            -14.6900
   XY=             -0.4428   XZ=             -0.0000   YZ=              0.0000

  Exact polarizability:  21.093   0.405  14.099  -0.000   0.000  11.496
 Approx polarizability:  34.047  -0.112  17.477   0.000  -0.000  14.761

                      1                      2                      3
                     A'                     A'                     A'
 Frequencies --    631.1796              1031.9730              1918.7691
 Red. masses --     15.6084                13.9146                13.4114
 Frc consts  --      3.6637                 8.7309                29.0917
 IR Inten    --     10.5367               202.6095               255.9414

 - Thermochemistry -
 -------------------
 Temperature   298.150 Kelvin.  Pressure   1.00000 Atm.
 Atom     1 has atomic number  9 and mass  18.99840

 Molecular mass:    46.99332 amu.
 Principal axes and moments of inertia in atomic units:
                           1         2         3
     Eigenvalues --     9.50008 157.16744 166.66752
           X            0.95388  -0.30018   0.00000
           Y            0.30018   0.95388   0.00000
           Z           -0.00000   0.00000   1.00000
 This molecule is an asymmetric top.
 Rotational symmetry number  1.
 Rotational temperatures (Kelvin)      9.11718     0.55109     0.51968
 Rotational constants (GHZ):         189.97114    11.48292    10.82839
 Zero-point vibrational energy      21424.6 (Joules/Mol)
                                    5.12061 (Kcal/Mol)
 Vibrational temperatures:    908.13  1484.78  2760.68
          (Kelvin)

 Zero-point correction=                           0.008160 (Hartree/Particle)
 Thermal correction to Energy=                    0.011170
 Thermal correction to Enthalpy=                  0.012114
 Thermal correction to Gibbs Free Energy=        -0.016145
 Sum of electronic and zero-point Energies=           -213.186241
 Sum of electronic and thermal Energies=              -213.183231
 Sum of electronic and thermal Enthalpies=            -213.182287
 Sum of electronic and thermal Free Energies=         -213.210546

                     E (Thermal)             CV                S
                      KCal/Mol        Cal/Mol-Kelvin    Cal/Mol-Kelvin
 Total                    7.009              7.288             59.476
 Electronic               0.000              0.000              1.377
 Translational            0.889              2.981             37.467
 Rotational               0.889              2.981             20.148
 Vibrational              5.232              1.326              0.483

 Optimization completed.
    -- Stationary point found.
 Normal termination of Gaussian 16 at Thu Jun 16 08:02:36 2022.
