 Gaussian 16, Revision B.01,

 ---------------------------------------
 # b3lyp/gen opt freq CPHF(Grid=OneStep)
 ---------------------------------------

 -----------------------
 Fluorene, B3LYP/pcseg-2
 -----------------------
 Symbolic Z-matrix:
 Charge =  0 Multiplicity = 1

 SCF Done:  E(RB3LYP) =  -501.604454873     A.U. after   19 cycles
 Optimization completed.
    -- Stationary point found.
 Normal termination of Gaussian 16 at Fri Sep 29 20:22:31 2023.

 ------------------------------------------------------------------
 #N Geom=AllCheck Guess=TCheck SCRF=Check GenChk RB3LYP/ChkBas Freq
 ------------------------------------------------------------------

 Structure from the checkpoint file:  "fluorene.chk"
 -----------------------
 Fluorene, B3LYP/pcseg-2
 -----------------------
 Charge =  0 Multiplicity = 1

 SCF Done:  E(RB3LYP) =  -501.604454873     A.U. after    1 cycles

  Exact polarizability:  77.036   0.000 221.377  -0.000  -0.000 153.371
 Approx polarizability: 127.484  -0.000 331.498  -0.000  -0.000 273.815

                      1                      2                      3
                     B1                     A2                     A1
 Frequencies --     97.4823               136.6784               217.5741
 Red. masses --      4.2728                 3.6942                 4.3731
 Frc consts  --      0.0239                 0.0407                 0.1220
 IR Inten    --      0.6315                 0.0000                 0.2050

                      4                      5                      6
                     B1                     A2                     A1
 Frequencies --    243.0806               275.6866               420.4352
 Red. masses --      2.1364                 4.4512                 6.4623
 Frc consts  --      0.0744                 0.1993                 0.6730
 IR Inten    --      7.0940                 0.0000                 0.3934

                      7                      8                      9
                     B1                     A2                     B1
 Frequencies --    424.2339               440.3212               484.5861
 Red. masses --      2.8335                 2.8349                 2.9125
 Frc consts  --      0.3005                 0.3238                 0.4030
 IR Inten    --      6.4073                 0.0000                 0.8313

                     10                     11                     12
                     B2                     B2                     A2
 Frequencies --    499.9616               555.0601               580.1338
 Red. masses --      4.0942                 5.6428                 3.3984
 Frc consts  --      0.6030                 1.0243                 0.6739
 IR Inten    --      0.2727                 0.1257                 0.0000

                     13                     14                     15
                     B2                     A1                     B1
 Frequencies --    638.5118               646.7440               716.5031
 Red. masses --      6.9328                 6.1304                 2.8857
 Frc consts  --      1.6653                 1.5108                 0.8729
 IR Inten    --      7.4855                 0.2824                 7.1408

                     16                     17                     18
                     A2                     A1                     B1
 Frequencies --    745.9927               758.0325               758.3374
 Red. masses --      1.5289                 5.3511                 1.2828
 Frc consts  --      0.5013                 1.8116                 0.4347
 IR Inten    --      0.0000                 0.0294               122.9435

                     19                     20                     21
                     A2                     B2                     A1
 Frequencies --    802.1413               815.4142               856.2682
 Red. masses --      2.2499                 3.8360                 5.2927
 Frc consts  --      0.8530                 1.5027                 2.2864
 IR Inten    --      0.0000                 0.3623                 0.0593

                     22                     23                     24
                     B1                     A2                     B1
 Frequencies --    876.3113               887.6629               939.7460
 Red. masses --      1.2966                 1.4346                 1.6578
 Frc consts  --      0.5866                 0.6660                 0.8626
 IR Inten    --      0.6006                 0.0000                 0.0001

                     25                     26                     27
                     A2                     B1                     A2
 Frequencies --    964.2280               983.0200              1001.0773
 Red. masses --      1.4124                 1.7790                 1.3106
 Frc consts  --      0.7737                 1.0128                 0.7739
 IR Inten    --      0.0000                 3.6110                 0.0000

                     28                     29                     30
                     B1                     B2                     A1
 Frequencies --   1002.3994              1028.0055              1047.1763
 Red. masses --      1.3006                 6.0060                 2.2577
 Frc consts  --      0.7700                 3.7396                 1.4587
 IR Inten    --      0.0141                 4.6469                 0.7162

                     31                     32                     33
                     B2                     A1                     B2
 Frequencies --   1054.7750              1120.2888              1132.3407
 Red. masses --      2.1308                 2.0754                 1.7029
 Frc consts  --      1.3967                 1.5346                 1.2865
 IR Inten    --      4.5587                 2.8508                 0.2259

                     34                     35                     36
                     A2                     B2                     A1
 Frequencies --   1162.5279              1178.4958              1182.0361
 Red. masses --      1.1458                 1.2821                 1.1485
 Frc consts  --      0.9123                 1.0491                 0.9454
 IR Inten    --      0.0000                 0.2187                 0.0020

                     37                     38                     39
                     B2                     A1                     B2
 Frequencies --   1194.2363              1209.4580              1221.8770
 Red. masses --      1.5964                 2.6094                 1.7934
 Frc consts  --      1.3415                 2.2489                 1.5775
 IR Inten    --      3.8054                 2.5171                 3.4978

                     40                     41                     42
                     A1                     A1                     B2
 Frequencies --   1253.0897              1324.2866              1331.9225
 Red. masses --      2.6941                 1.8652                 2.6584
 Frc consts  --      2.4924                 1.9272                 2.7787
 IR Inten    --      3.2664                 0.2925                 4.3327

                     43                     44                     45
                     B2                     A1                     A1
 Frequencies --   1345.6782              1373.7649              1450.3176
 Red. masses --      2.1436                 4.3718                 1.1408
 Frc consts  --      2.2870                 4.8611                 1.4138
 IR Inten    --      5.1605                 0.3677                12.3954

                     46                     47                     48
                     A1                     B2                     A1
 Frequencies --   1481.6048              1488.9380              1510.9647
 Red. masses --      2.3005                 2.1941                 2.7762
 Frc consts  --      2.9753                 2.8659                 3.7343
 IR Inten    --      8.7561                18.9255                 0.0394

                     49                     50                     51
                     B2                     A1                     B2
 Frequencies --   1514.0548              1616.9329              1621.0114
 Red. masses --      2.5493                 5.3647                 6.3088
 Frc consts  --      3.4431                 8.2638                 9.7672
 IR Inten    --      6.9659                 1.3655                 0.3929

                     52                     53                     54
                     A1                     B2                     A1
 Frequencies --   1645.9835              1647.2022              3024.8553
 Red. masses --      6.2022                 6.6291                 1.0596
 Frc consts  --      9.9003                10.5974                 5.7119
 IR Inten    --      0.0027                 3.9183                14.1024

                     55                     56                     57
                     B1                     B2                     A1
 Frequencies --   3048.2906              3162.8894              3163.2376
 Red. masses --      1.1015                 1.0862                 1.0864
 Frc consts  --      6.0303                 6.4022                 6.4047
 IR Inten    --      6.4845                 2.3896                 7.9887

                     58                     59                     60
                     B2                     A1                     B2
 Frequencies --   3169.0126              3170.5880              3180.1890
 Red. masses --      1.0880                 1.0881                 1.0923
 Frc consts  --      6.4378                 6.4444                 6.5087
 IR Inten    --      1.8936                 4.3045                 5.8242

                     61                     62                     63
                     A1                     B2                     A1
 Frequencies --   3181.4485              3192.3827              3192.9965
 Red. masses --      1.0922                 1.0966                 1.0965
 Frc consts  --      6.5132                 6.5844                 6.5864
 IR Inten    --     34.4969                40.6990                 4.9135

 - Thermochemistry -
 -------------------
 Temperature   298.150 Kelvin.  Pressure   1.00000 Atm.
 Atom     1 has atomic number  6 and mass  12.00000

 Molecular mass:   166.07825 amu.
 Principal axes and moments of inertia in atomic units:
                           1         2         3
     Eigenvalues --   822.494503069.062143880.49218
           X           -0.00000   0.00000   1.00000
           Y            1.00000   0.00000   0.00000
           Z           -0.00000   1.00000   0.00000
 This molecule is an asymmetric top.
 Rotational symmetry number  2.
 Warning -- assumption of classical behavior for rotation
           may cause significant error
 Rotational temperatures (Kelvin)      0.10531     0.02822     0.02232
 Rotational constants (GHZ):           2.19423     0.58804     0.46508
 Zero-point vibrational energy     492804.5 (Joules/Mol)
                                  117.78311 (Kcal/Mol)
 Warning -- explicit consideration of  12 degrees of freedom as
           vibrations may cause significant error
 Vibrational temperatures:    140.26   196.65   313.04   349.74   396.65
          (Kelvin)            604.91   610.38   633.52   697.21   719.33
                              798.61   834.68   918.68   930.52  1030.89
                             1073.32  1090.64  1091.08  1154.10  1173.20
                             1231.98  1260.82  1277.15  1352.08  1387.31
                             1414.35  1440.33  1442.23  1479.07  1506.65
                             1517.59  1611.85  1629.19  1672.62  1695.59
                             1700.69  1718.24  1740.14  1758.01  1802.92
                             1905.35  1916.34  1936.13  1976.54  2086.68
                             2131.70  2142.25  2173.94  2178.39  2326.41
                             2332.27  2368.20  2369.96  4352.09  4385.81
                             4550.69  4551.19  4559.50  4561.77  4575.58
                             4577.39  4593.13  4594.01

 Zero-point correction=                           0.187699 (Hartree/Particle)
 Thermal correction to Energy=                    0.196610
 Thermal correction to Enthalpy=                  0.197554
 Thermal correction to Gibbs Free Energy=         0.154245
 Sum of electronic and zero-point Energies=           -501.416756
 Sum of electronic and thermal Energies=              -501.407845
 Sum of electronic and thermal Enthalpies=            -501.406901
 Sum of electronic and thermal Free Energies=         -501.450209

                     E (Thermal)             CV                S
                      KCal/Mol        Cal/Mol-Kelvin    Cal/Mol-Kelvin
 Total                  123.374             37.912             91.150
 Electronic               0.000              0.000              0.000
 Translational            0.889              2.981             41.230
 Rotational               0.889              2.981             29.283
 Vibrational            121.597             31.950             20.636
 Vibration     1          0.603              1.951              3.504
 Vibration     2          0.614              1.917              2.850
 Vibration     3          0.646              1.814              1.979
 Vibration     4          0.659              1.774              1.780
 Vibration     5          0.677              1.718              1.560
 Vibration     6          0.783              1.426              0.890
 Vibration     7          0.786              1.418              0.878
 Vibration     8          0.800              1.382              0.826
 Vibration     9          0.841              1.284              0.698
 Vibration    10          0.855              1.250              0.658
 Vibration    11          0.911              1.129              0.534
 Vibration    12          0.937              1.074              0.485

 Optimization completed.
    -- Stationary point found.
 Normal termination of Gaussian 16 at Fri Sep 29 21:39:32 2023.
 Gaussian 16:  ES64L-G16RevB.01 20-Dec-2017

 ---------------------------------
 # rohf/gen geom=check guess=check
 ---------------------------------

 --------------------------
 Fluorene, ROHF/cc-pVTZ-F12
 --------------------------
 Structure from the checkpoint file:  "fluorene.chk"
 Charge =  0 Multiplicity = 1

                         Standard orientation:
 ---------------------------------------------------------------------
 Center     Atomic      Atomic             Coordinates (Angstroms)
 Number     Number       Type             X           Y           Z
 ---------------------------------------------------------------------
      1          6           0       -0.000000    0.000000    1.825479
      2          6           0       -0.000000    1.181034    0.882830
      3          6           0       -0.000000   -1.181034    0.882830
      4          6           0        0.000000    0.733107   -0.449218
      5          6           0       -0.000000   -0.733107   -0.449218
      6          6           0       -0.000000    2.536534    1.168005
      7          6           0       -0.000000   -2.536534    1.168005
      8          6           0       -0.000000    3.449869    0.115001
      9          6           0       -0.000000   -3.449869    0.115001
     10          6           0        0.000000    3.006943   -1.206590
     11          6           0       -0.000000   -3.006943   -1.206590
     12          6           0        0.000000    1.647218   -1.498791
     13          6           0       -0.000000   -1.647218   -1.498791
     14          1           0        0.876685   -0.000000    2.479370
     15          1           0       -0.876685    0.000000    2.479370
     16          1           0       -0.000000    2.888030    2.192156
     17          1           0       -0.000000   -2.888030    2.192156
     18          1           0       -0.000000    4.511113    0.324430
     19          1           0       -0.000000   -4.511113    0.324430
     20          1           0        0.000000    3.728904   -2.012250
     21          1           0       -0.000000   -3.728904   -2.012250
     22          1           0        0.000000    1.311663   -2.527567
     23          1           0       -0.000000   -1.311663   -2.527567
 ---------------------------------------------------------------------

 SCF Done:  E(ROHF) =  -498.317031545     A.U. after   12 cycles

 The electronic state is 1-A1.
 Alpha  occ. eigenvalues --  -11.23828 -11.23781 -11.23759 -11.23673 -11.23624
 Alpha  occ. eigenvalues --  -11.23380 -11.23377 -11.23341 -11.23340 -11.23237
 Alpha  occ. eigenvalues --  -11.23237 -11.23134 -11.23134  -1.19303  -1.14070
 Alpha  occ. eigenvalues --   -1.08055  -1.04062  -1.01236  -0.97597  -0.93936
 Alpha  occ. eigenvalues --   -0.86311  -0.80110  -0.79946  -0.78821  -0.70457
 Alpha  occ. eigenvalues --   -0.67287  -0.65998  -0.62991  -0.61362  -0.60827
 Alpha  occ. eigenvalues --   -0.59711  -0.58718  -0.57044  -0.55983  -0.50643
 Alpha  occ. eigenvalues --   -0.50612  -0.50286  -0.49062  -0.47756  -0.47683
 Alpha  occ. eigenvalues --   -0.37976  -0.33886  -0.32870  -0.28725
 Alpha virt. eigenvalues --    0.04298   0.04515   0.04612   0.05778   0.05840
 Alpha virt. eigenvalues --    0.06602   0.07534   0.07628   0.07734   0.09064
 Alpha virt. eigenvalues --    0.09080   0.09109   0.09667   0.09997   0.10520

 Mulliken charges and spin densities:
               1          2
     1  C   -0.271423   0.000000
     2  C    0.162017   0.000000
     3  C    0.162017   0.000000
     4  C    0.160286   0.000000
     5  C    0.160286   0.000000
     6  C   -0.239535   0.000000
     7  C   -0.239535   0.000000
     8  C   -0.185507   0.000000
     9  C   -0.185507   0.000000
    10  C   -0.169698   0.000000
    11  C   -0.169698   0.000000
    12  C   -0.229058   0.000000
    13  C   -0.229058   0.000000
    14  H    0.102799   0.000000
    15  H    0.102799   0.000000
    16  H    0.135738   0.000000
    17  H    0.135738   0.000000
    18  H    0.135295   0.000000
    19  H    0.135295   0.000000
    20  H    0.136020   0.000000
    21  H    0.136020   0.000000
    22  H    0.127356   0.000000
    23  H    0.127356   0.000000
 Sum of Mulliken charges =  -0.00000   0.00000

 Dipole moment (field-independent basis, Debye):
    X=             -0.0000    Y=             -0.0000    Z=              0.5259  Tot=              0.5259
 Quadrupole moment (field-independent basis, Debye-Ang):
   XX=            -83.1300   YY=            -69.7324   ZZ=            -66.8682
   XY=              0.0000   XZ=              0.0000   YZ=              0.0000

 Normal termination of Gaussian 16 at Fri Sep 29 22:12:51 2023.
