 Gaussian 16, Revision B.01,
 Gaussian 16:  ES64L-G16RevB.01 20-Dec-2017

 --------------------
 # b3lyp/gen opt freq
 --------------------

 -----------------------
 Fluorene, B3LYP/pcseg-2
 -----------------------
 Symbolic Z-matrix:
 Charge =  0 Multiplicity = 1

 SCF Done:  E(RB3LYP) =  -501.603936126     A.U. after   16 cycles
 SCF Done:  E(RB3LYP) =  -501.604450331     A.U. after   14 cycles
 SCF Done:  E(RB3LYP) =  -501.604454874     A.U. after    7 cycles
 Optimization completed.
    -- Stationary point found.
 Normal termination of Gaussian 16 at Tue Sep  6 16:59:40 2022.

 ------------------------------------------------------------------
 #N Geom=AllCheck Guess=TCheck SCRF=Check GenChk RB3LYP/ChkBas Freq
 ------------------------------------------------------------------

 Structure from the checkpoint file:  "/home/irikura/scratch/gau/Gau-618409.chk"
 -----------------------
 Fluorene, B3LYP/pcseg-2
 -----------------------
 Charge =  0 Multiplicity = 1

                         Standard orientation:
 ---------------------------------------------------------------------
 Center     Atomic      Atomic             Coordinates (Angstroms)
 Number     Number       Type             X           Y           Z
 ---------------------------------------------------------------------
      1          6           0        0.000000    0.000000    1.825479
      2          6           0       -0.000000    1.181034    0.882830
      3          6           0       -0.000000   -1.181034    0.882830
      4          6           0       -0.000000    0.733107   -0.449218
      5          6           0       -0.000000   -0.733107   -0.449218
      6          6           0       -0.000000    2.536534    1.168005
      7          6           0       -0.000000   -2.536534    1.168005
      8          6           0       -0.000000    3.449869    0.115001
      9          6           0       -0.000000   -3.449869    0.115001
     10          6           0       -0.000000    3.006943   -1.206590
     11          6           0       -0.000000   -3.006943   -1.206590
     12          6           0       -0.000000    1.647218   -1.498791
     13          6           0       -0.000000   -1.647218   -1.498791
     14          1           0        0.876685   -0.000000    2.479370
     15          1           0       -0.876685    0.000000    2.479370
     16          1           0       -0.000000    2.888030    2.192156
     17          1           0       -0.000000   -2.888030    2.192156
     18          1           0       -0.000000    4.511113    0.324430
     19          1           0       -0.000000   -4.511113    0.324430
     20          1           0       -0.000000    3.728904   -2.012250
     21          1           0       -0.000000   -3.728904   -2.012250
     22          1           0       -0.000000    1.311663   -2.527567
     23          1           0       -0.000000   -1.311663   -2.527567
 ---------------------------------------------------------------------

 SCF Done:  E(RB3LYP) =  -501.604454874     A.U. after    1 cycles

 The electronic state is 1-A1.
 Alpha  occ. eigenvalues --  -10.18501 -10.18165 -10.18165 -10.18046 -10.18013
 Alpha  occ. eigenvalues --  -10.17645 -10.17645 -10.17639 -10.17639 -10.17544
 Alpha  occ. eigenvalues --  -10.17544 -10.17488 -10.17488  -0.89269  -0.85018
 Alpha  occ. eigenvalues --   -0.80429  -0.77033  -0.74737  -0.71873  -0.69334
 Alpha  occ. eigenvalues --   -0.63839  -0.58968  -0.58800  -0.57974  -0.52310
 Alpha  occ. eigenvalues --   -0.49663  -0.48333  -0.45733  -0.45346  -0.44390
 Alpha  occ. eigenvalues --   -0.43339  -0.42601  -0.41272  -0.40533  -0.37419
 Alpha  occ. eigenvalues --   -0.36350  -0.35959  -0.35769  -0.33751  -0.33734
 Alpha  occ. eigenvalues --   -0.29068  -0.25985  -0.25159  -0.22428
 Alpha virt. eigenvalues --   -0.04231  -0.02655  -0.00341   0.01743   0.02371
 Alpha virt. eigenvalues --    0.02423   0.02732   0.04331   0.04849   0.06710
 Alpha virt. eigenvalues --    0.06860   0.07026   0.08115   0.11227   0.11397

 Mulliken charges:
               1
     1  C   -0.215280
     2  C    0.268395
     3  C    0.268395
     4  C    0.190624
     5  C    0.190624
     6  C   -0.254973
     7  C   -0.254973
     8  C    0.013390
     9  C    0.013390
    10  C   -0.025413
    11  C   -0.025413
    12  C   -0.173974
    13  C   -0.173974
    14  H    0.057810
    15  H    0.057810
    16  H    0.001652
    17  H    0.001652
    18  H    0.015223
    19  H    0.015223
    20  H    0.011935
    21  H    0.011935
    22  H    0.002971
    23  H    0.002971
 Sum of Mulliken charges =   0.00000

 Dipole moment (field-independent basis, Debye):
    X=             -0.0000    Y=             -0.0000    Z=              0.5584  Tot=              0.5584
 Quadrupole moment (field-independent basis, Debye-Ang):
   XX=            -81.4659   YY=            -70.0317   ZZ=            -67.2831
   XY=             -0.0000   XZ=              0.0000   YZ=              0.0000

  Exact polarizability:  77.032   0.000 221.375  -0.000  -0.000 153.370
 Approx polarizability: 127.484  -0.000 331.498  -0.000   0.000 273.815

                      1                      2                      3
                     B1                     A2                     A1
 Frequencies --     97.4823               136.6780               217.5720
 Red. masses --      4.2728                 3.6942                 4.3731
 Frc consts  --      0.0239                 0.0407                 0.1220
 IR Inten    --      0.6316                 0.0000                 0.2050

                      4                      5                      6
                     B1                     A2                     A1
 Frequencies --    243.0811               275.6867               420.4350
 Red. masses --      2.1364                 4.4512                 6.4622
 Frc consts  --      0.0744                 0.1993                 0.6730
 IR Inten    --      7.0938                 0.0000                 0.3934

                      7                      8                      9
                     B1                     A2                     B1
 Frequencies --    424.2338               440.3229               484.5860
 Red. masses --      2.8335                 2.8349                 2.9125
 Frc consts  --      0.3005                 0.3238                 0.4030
 IR Inten    --      6.4067                 0.0000                 0.8310

                     10                     11                     12
                     B2                     B2                     A2
 Frequencies --    499.9603               555.0604               580.1336
 Red. masses --      4.0942                 5.6428                 3.3984
 Frc consts  --      0.6030                 1.0243                 0.6739
 IR Inten    --      0.2724                 0.1256                 0.0000

                     13                     14                     15
                     B2                     A1                     B1
 Frequencies --    638.5125               646.7460               716.5041
 Red. masses --      6.9327                 6.1304                 2.8858
 Frc consts  --      1.6653                 1.5108                 0.8729
 IR Inten    --      7.4876                 0.2825                 7.1419

                     16                     17                     18
                     A2                     A1                     B1
 Frequencies --    745.9949               758.0313               758.3370
 Red. masses --      1.5289                 5.3511                 1.2828
 Frc consts  --      0.5013                 1.8116                 0.4347
 IR Inten    --      0.0000                 0.0295               122.9457

                     19                     20                     21
                     A2                     B2                     A1
 Frequencies --    802.1407               815.4153               856.2710
 Red. masses --      2.2500                 3.8359                 5.2927
 Frc consts  --      0.8530                 1.5027                 2.2864
 IR Inten    --      0.0000                 0.3627                 0.0593

                     22                     23                     24
                     B1                     A2                     B1
 Frequencies --    876.3130               887.6671               939.7466
 Red. masses --      1.2966                 1.4345                 1.6578
 Frc consts  --      0.5866                 0.6660                 0.8626
 IR Inten    --      0.6014                 0.0000                 0.0002

                     25                     26                     27
                     A2                     B1                     A2
 Frequencies --    964.2307               983.0205              1001.0791
 Red. masses --      1.4124                 1.7790                 1.3106
 Frc consts  --      0.7737                 1.0128                 0.7739
 IR Inten    --      0.0000                 3.6113                 0.0000

                     28                     29                     30
                     B1                     B2                     A1
 Frequencies --   1002.4006              1028.0050              1047.1746
 Red. masses --      1.3006                 6.0056                 2.2577
 Frc consts  --      0.7700                 3.7393                 1.4587
 IR Inten    --      0.0141                 4.6480                 0.7160

                     31                     32                     33
                     B2                     A1                     B2
 Frequencies --   1054.7829              1120.2907              1132.3432
 Red. masses --      2.1310                 2.0753                 1.7030
 Frc consts  --      1.3969                 1.5346                 1.2865
 IR Inten    --      4.5504                 2.8511                 0.2259

                     34                     35                     36
                     A2                     B2                     A1
 Frequencies --   1162.5282              1178.5009              1182.0372
 Red. masses --      1.1458                 1.2820                 1.1484
 Frc consts  --      0.9123                 1.0491                 0.9454
 IR Inten    --      0.0000                 0.2184                 0.0020

                     37                     38                     39
                     B2                     A1                     B2
 Frequencies --   1194.2355              1209.4586              1221.8796
 Red. masses --      1.5964                 2.6095                 1.7936
 Frc consts  --      1.3414                 2.2490                 1.5777
 IR Inten    --      3.8057                 2.5171                 3.5021

                     40                     41                     42
                     A1                     A1                     B2
 Frequencies --   1253.0897              1324.2916              1331.9281
 Red. masses --      2.6941                 1.8652                 2.6591
 Frc consts  --      2.4925                 1.9272                 2.7794
 IR Inten    --      3.2663                 0.2926                 4.3305

                     43                     44                     45
                     B2                     A1                     A1
 Frequencies --   1345.6819              1373.7653              1450.3189
 Red. masses --      2.1431                 4.3717                 1.1408
 Frc consts  --      2.2865                 4.8610                 1.4138
 IR Inten    --      5.1619                 0.3675                12.3960

                     46                     47                     48
                     A1                     B2                     A1
 Frequencies --   1481.6078              1488.9414              1510.9634
 Red. masses --      2.3005                 2.1940                 2.7762
 Frc consts  --      2.9753                 2.8658                 3.7342
 IR Inten    --      8.7565                18.9281                 0.0394

                     49                     50                     51
                     B2                     A1                     B2
 Frequencies --   1514.0596              1616.9329              1621.0155
 Red. masses --      2.5492                 5.3648                 6.3090
 Frc consts  --      3.4430                 8.2640                 9.7675
 IR Inten    --      6.9666                 1.3652                 0.3932

                     52                     53                     54
                     A1                     B2                     A1
 Frequencies --   1645.9845              1647.2031              3024.8499
 Red. masses --      6.2022                 6.6289                 1.0596
 Frc consts  --      9.9003                10.5971                 5.7119
 IR Inten    --      0.0027                 3.9193                14.1025

                     55                     56                     57
                     B1                     B2                     A1
 Frequencies --   3048.2881              3162.8972              3163.2412
 Red. masses --      1.1015                 1.0862                 1.0864
 Frc consts  --      6.0303                 6.4023                 6.4047
 IR Inten    --      6.4875                 2.3809                 7.9794

                     58                     59                     60
                     B2                     A1                     B2
 Frequencies --   3169.0370              3170.5862              3180.2074
 Red. masses --      1.0880                 1.0881                 1.0923
 Frc consts  --      6.4379                 6.4444                 6.5088
 IR Inten    --      1.8873                 4.3132                 5.8428

                     61                     62                     63
                     A1                     B2                     A1
 Frequencies --   3181.4498              3192.3843              3192.9939
 Red. masses --      1.0922                 1.0966                 1.0965
 Frc consts  --      6.5132                 6.5844                 6.5864
 IR Inten    --     34.5019                40.6950                 4.9073

 - Thermochemistry -
 -------------------
 Temperature   298.150 Kelvin.  Pressure   1.00000 Atm.
 Atom     1 has atomic number  6 and mass  12.00000

 Molecular mass:   166.07825 amu.
 Principal axes and moments of inertia in atomic units:
                           1         2         3
     Eigenvalues --   822.494443069.062283880.49225
           X           -0.00000   0.00000   1.00000
           Y            1.00000   0.00000   0.00000
           Z           -0.00000   1.00000  -0.00000
 This molecule is an asymmetric top.
 Rotational symmetry number  2.
 Warning -- assumption of classical behavior for rotation
           may cause significant error
 Rotational temperatures (Kelvin)      0.10531     0.02822     0.02232
 Rotational constants (GHZ):           2.19423     0.58804     0.46508
 Zero-point vibrational energy     492805.2 (Joules/Mol)
                                  117.78327 (Kcal/Mol)
 Warning -- explicit consideration of  12 degrees of freedom as
           vibrations may cause significant error
 Vibrational temperatures:    140.26   196.65   313.04   349.74   396.65
          (Kelvin)            604.91   610.38   633.53   697.21   719.33
                              798.61   834.68   918.68   930.52  1030.89
                             1073.32  1090.64  1091.08  1154.10  1173.20
                             1231.98  1260.82  1277.15  1352.09  1387.31
                             1414.35  1440.33  1442.23  1479.07  1506.65
                             1517.60  1611.85  1629.19  1672.62  1695.60
                             1700.69  1718.24  1740.14  1758.01  1802.92
                             1905.36  1916.35  1936.14  1976.54  2086.69
                             2131.70  2142.25  2173.94  2178.39  2326.41
                             2332.28  2368.20  2369.96  4352.08  4385.81
                             4550.70  4551.20  4559.54  4561.77  4575.61
                             4577.40  4593.13  4594.01

 Zero-point correction=                           0.187700 (Hartree/Particle)
 Thermal correction to Energy=                    0.196610
 Thermal correction to Enthalpy=                  0.197554
 Thermal correction to Gibbs Free Energy=         0.154246
 Sum of electronic and zero-point Energies=           -501.416755
 Sum of electronic and thermal Energies=              -501.407845
 Sum of electronic and thermal Enthalpies=            -501.406901
 Sum of electronic and thermal Free Energies=         -501.450209

                     E (Thermal)             CV                S
                      KCal/Mol        Cal/Mol-Kelvin    Cal/Mol-Kelvin
 Total                  123.375             37.912             91.150
 Electronic               0.000              0.000              0.000
 Translational            0.889              2.981             41.230
 Rotational               0.889              2.981             29.283
 Vibrational            121.597             31.950             20.636
 Vibration     1          0.603              1.951              3.504
 Vibration     2          0.614              1.917              2.850
 Vibration     3          0.646              1.814              1.979
 Vibration     4          0.659              1.774              1.780
 Vibration     5          0.677              1.718              1.560
 Vibration     6          0.783              1.426              0.890
 Vibration     7          0.786              1.418              0.878
 Vibration     8          0.800              1.382              0.826
 Vibration     9          0.841              1.284              0.698
 Vibration    10          0.855              1.250              0.658
 Vibration    11          0.911              1.129              0.534
 Vibration    12          0.937              1.074              0.485

 Optimization completed.
    -- Stationary point found.
 Normal termination of Gaussian 16 at Tue Sep  6 17:25:19 2022.
