 Gaussian 16, Revision B.01,
 Gaussian 16:  ES64L-G16RevB.01 20-Dec-2017

 --------------------
 # b3lyp/gen opt freq
 --------------------

 --------------------------------
 nitrosyl fluoride, B3LYP/pcseg-2
 --------------------------------
 Symbolic Z-matrix:
 Charge =  0 Multiplicity = 1

 SCF Done:  E(RB3LYP) =  -229.813125859     A.U. after   14 cycles
 SCF Done:  E(RB3LYP) =  -229.813151987     A.U. after    9 cycles
 SCF Done:  E(RB3LYP) =  -229.813158111     A.U. after    8 cycles
 SCF Done:  E(RB3LYP) =  -229.813159207     A.U. after    8 cycles
 SCF Done:  E(RB3LYP) =  -229.813159623     A.U. after    8 cycles
 Optimization completed.
    -- Stationary point found.
 Normal termination of Gaussian 16 at Fri Jun 17 17:25:05 2022.

 ------------------------------------------------------------------
 #N Geom=AllCheck Guess=TCheck SCRF=Check GenChk RB3LYP/ChkBas Freq
 ------------------------------------------------------------------

 Structure from the checkpoint file:  "/wrk/irikura/Gau-1772.chk"
 --------------------------------
 nitrosyl fluoride, B3LYP/pcseg-2
 --------------------------------
 Charge =  0 Multiplicity = 1

                         Standard orientation:
 ---------------------------------------------------------------------
 Center     Atomic      Atomic             Coordinates (Angstroms)
 Number     Number       Type             X           Y           Z
 ---------------------------------------------------------------------
      1          9           0       -0.951538   -0.630603    0.000000
      2          7           0        0.000000    0.565232    0.000000
      3          8           0        1.070480    0.214850    0.000000
 ---------------------------------------------------------------------

 SCF Done:  E(RB3LYP) =  -229.813159623     A.U. after    1 cycles

 The electronic state is 1-A'.
 Alpha  occ. eigenvalues --  -24.67969 -19.29879 -14.57082  -1.33116  -1.16537
 Alpha  occ. eigenvalues --   -0.72919  -0.60306  -0.58158  -0.56337  -0.41365
 Alpha  occ. eigenvalues --   -0.40378  -0.35725
 Alpha virt. eigenvalues --   -0.14205  -0.03031   0.13635   0.21134   0.22086
 Alpha virt. eigenvalues --    0.22614   0.30452   0.36560   0.37080   0.45144
 Alpha virt. eigenvalues --    0.48356   0.48603   0.55072   0.67702   0.82555

 Mulliken charges:
               1
     1  F   -0.276358
     2  N    0.290628
     3  O   -0.014270
 Sum of Mulliken charges =   0.00000

 Dipole moment (field-independent basis, Debye):
    X=              1.3698    Y=              1.1129    Z=              0.0000  Tot=              1.7649
 Quadrupole moment (field-independent basis, Debye-Ang):
   XX=            -16.8295   YY=            -16.0491   ZZ=            -14.4765
   XY=             -0.4575   XZ=             -0.0000   YZ=              0.0000

  Exact polarizability:  20.882   4.528  14.221   0.000  -0.000   9.089
 Approx polarizability:  40.610   9.717  22.021  -0.000   0.000  12.347

                      1                      2                      3
                     A'                     A'                     A'
 Frequencies --    522.0949               784.2531              1945.3148
 Red. masses --     17.2688                14.9000                14.8946
 Frc consts  --      2.7734                 5.3994                33.2093
 IR Inten    --    136.6222               184.7302               269.6968

 - Thermochemistry -
 -------------------
 Temperature   298.150 Kelvin.  Pressure   1.00000 Atm.
 Atom     1 has atomic number  9 and mass  18.99840

 Molecular mass:    48.99639 amu.
 Principal axes and moments of inertia in atomic units:
                           1         2         3
     Eigenvalues --    18.77104 153.60768 172.37872
           X            0.89515  -0.44576   0.00000
           Y            0.44576   0.89515   0.00000
           Z           -0.00000   0.00000   1.00000
 This molecule is an asymmetric top.
 Rotational symmetry number  1.
 Rotational temperatures (Kelvin)      4.61423     0.56386     0.50246
 Rotational constants (GHZ):          96.14497    11.74903    10.46963
 Zero-point vibrational energy      19449.3 (Joules/Mol)
                                    4.64849 (Kcal/Mol)
 Warning -- explicit consideration of   1 degrees of freedom as
           vibrations may cause significant error
 Vibrational temperatures:    751.18  1128.37  2798.87
          (Kelvin)

 Zero-point correction=                           0.007408 (Hartree/Particle)
 Thermal correction to Energy=                    0.010532
 Thermal correction to Enthalpy=                  0.011477
 Thermal correction to Gibbs Free Energy=        -0.016677
 Sum of electronic and zero-point Energies=           -229.805752
 Sum of electronic and thermal Energies=              -229.802627
 Sum of electronic and thermal Enthalpies=            -229.801683
 Sum of electronic and thermal Free Energies=         -229.829837

                     E (Thermal)             CV                S
                      KCal/Mol        Cal/Mol-Kelvin    Cal/Mol-Kelvin
 Total                    6.609              7.854             59.254
 Electronic               0.000              0.000              0.000
 Translational            0.889              2.981             37.591
 Rotational               0.889              2.981             20.835
 Vibrational              4.832              1.893              0.827
 Vibration     1          0.877              1.201              0.605

 Optimization completed.
    -- Stationary point found.
 Normal termination of Gaussian 16 at Fri Jun 17 17:25:13 2022.
