 Gaussian 16, Revision B.01,
 Gaussian 16:  ES64L-G16RevB.01 20-Dec-2017

 --------------------
 # b3lyp/gen opt freq
 --------------------

 ----------------------------------
 oxygen monofluoride, B3LYP/pcseg-2
 ----------------------------------
 Symbolic Z-matrix:
 Charge =  0 Multiplicity = 2

 SCF Done:  E(UB3LYP) =  -174.950563008     A.U. after   13 cycles
 SCF Done:  E(UB3LYP) =  -174.952430842     A.U. after   13 cycles
 SCF Done:  E(UB3LYP) =  -174.952595212     A.U. after   10 cycles
 Optimization completed.
    -- Stationary point found.
 Normal termination of Gaussian 16 at Wed Jun 15 15:48:19 2022.

 ------------------------------------------------------------------
 #N Geom=AllCheck Guess=TCheck SCRF=Check GenChk UB3LYP/ChkBas Freq
 ------------------------------------------------------------------

 Structure from the checkpoint file:  "/wrk/irikura/Gau-16882.chk"
 ----------------------------------
 oxygen monofluoride, B3LYP/pcseg-2
 ----------------------------------
 Charge =  0 Multiplicity = 2

                         Standard orientation:
 ---------------------------------------------------------------------
 Center     Atomic      Atomic             Coordinates (Angstroms)
 Number     Number       Type             X           Y           Z
 ---------------------------------------------------------------------
      1          8           0        0.000000    0.000000   -0.714845
      2          9           0        0.000000    0.000000    0.635418
 ---------------------------------------------------------------------

 SCF Done:  E(UB3LYP) =  -174.952595212     A.U. after    1 cycles

 Unable to determine electronic state:  an orbital has unidentified symmetry.
 Alpha  occ. eigenvalues --  -24.78979 -19.30083  -1.33647  -0.96716  -0.58242
 Alpha  occ. eigenvalues --   -0.57319  -0.54025  -0.40511  -0.35142
 Alpha virt. eigenvalues --   -0.04760   0.28151   0.30075   0.30610   0.31885
 Alpha virt. eigenvalues --    0.43166   0.46204   0.47031   0.84563   1.30648
 Alpha virt. eigenvalues --    1.33526   1.34952   1.34981   1.75748   1.82582

  Beta  occ. eigenvalues --  -24.78370 -19.27582  -1.31622  -0.91130  -0.56479
  Beta  occ. eigenvalues --   -0.53169  -0.50742  -0.33143
  Beta virt. eigenvalues --   -0.19718  -0.02575   0.28620   0.31707   0.32329
  Beta virt. eigenvalues --    0.33446   0.43371   0.47150   0.47330   0.84960
  Beta virt. eigenvalues --    1.33837   1.34051   1.38770   1.39134   1.77701

 Mulliken charges and spin densities:
               1          2
     1  O    0.034977   0.871968
     2  F   -0.034977   0.128032
 Sum of Mulliken charges =  -0.00000   1.00000

 Dipole moment (field-independent basis, Debye):
    X=              0.0000    Y=              0.0000    Z=              0.0187  Tot=              0.0187
 Quadrupole moment (field-independent basis, Debye-Ang):
   XX=             -9.5097   YY=            -10.5047   ZZ=             -9.8220
   XY=              0.0000   XZ=              0.0000   YZ=              0.0000

  Exact polarizability:   4.839   0.000   4.720   0.000   0.000  12.587
 Approx polarizability:   5.824  -0.000   5.320  -0.000  -0.000  20.973

                      1
                     SG
 Frequencies --   1112.7443
 Red. masses --     17.2408
 Frc consts  --     12.5776
 IR Inten    --     49.3800

 - Thermochemistry -
 -------------------
 Temperature   298.150 Kelvin.  Pressure   1.00000 Atm.
 Atom     1 has atomic number  8 and mass  15.99491

 Molecular mass:    34.99332 amu.
 Principal axes and moments of inertia in atomic units:
                           1         2         3
     Eigenvalues --     0.00000  56.53901  56.53901
           X            0.00000  -0.00000   1.00000
           Y            0.00000   1.00000   0.00000
           Z            1.00000   0.00000   0.00000
 This molecule is a prolate symmetric top.
 Rotational symmetry number  1.
 Rotational temperature (Kelvin)      1.53193
 Rotational constant (GHZ):          31.920283
 Zero-point vibrational energy       6655.7 (Joules/Mol)
                                    1.59075 (Kcal/Mol)
 Vibrational temperatures:   1600.99
          (Kelvin)

 Zero-point correction=                           0.002535 (Hartree/Particle)
 Thermal correction to Energy=                    0.004919
 Thermal correction to Enthalpy=                  0.005863
 Thermal correction to Gibbs Free Energy=        -0.018124
 Sum of electronic and zero-point Energies=           -174.950060
 Sum of electronic and thermal Energies=              -174.947676
 Sum of electronic and thermal Enthalpies=            -174.946732
 Sum of electronic and thermal Free Energies=         -174.970720

                     E (Thermal)             CV                S
                      KCal/Mol        Cal/Mol-Kelvin    Cal/Mol-Kelvin
 Total                    3.087              5.237             50.487
 Electronic               0.000              0.000              1.377
 Translational            0.889              2.981             36.588
 Rotational               0.592              1.987             12.462
 Vibrational              1.606              0.269              0.059

 Optimization completed.
    -- Stationary point found.
 Normal termination of Gaussian 16 at Wed Jun 15 15:48:25 2022.
