 Gaussian 16, Revision B.01,

 ---------------------------------------
 # b3lyp/gen opt freq CPHF(Grid=OneStep)
 ---------------------------------------

 ----------------------------
 fluoroperoxyl, B3LYP/pcseg-2
 ----------------------------
 Symbolic Z-matrix:
 Charge =  0 Multiplicity = 2

 SCF Done:  E(UB3LYP) =  -250.175747659     A.U. after   24 cycles
 Optimization completed.
    -- Stationary point found.
 Normal termination of Gaussian 16 at Sat Sep 30 01:31:59 2023.

 ------------------------------------------------------------------
 #N Geom=AllCheck Guess=TCheck SCRF=Check GenChk UB3LYP/ChkBas Freq
 ------------------------------------------------------------------

 Structure from the checkpoint file:  "foo.chk"
 ----------------------------
 fluoroperoxyl, B3LYP/pcseg-2
 ----------------------------
 Charge =  0 Multiplicity = 2

 SCF Done:  E(UB3LYP) =  -250.175747659     A.U. after    1 cycles

  Exact polarizability:  24.867   6.534  14.379  -0.000  -0.000   7.315
 Approx polarizability:  55.660  17.212  25.467  -0.000  -0.000   9.087

                      1                      2                      3
                     A'                     A'                     A'
 Frequencies --    357.8576               592.6212              1543.1849
 Red. masses --     17.7005                16.3638                16.0050
 Frc consts  --      1.3355                 3.3860                22.4564
 IR Inten    --     65.0079                53.1249               145.0030

 - Thermochemistry -
 -------------------
 Temperature   298.150 Kelvin.  Pressure   1.00000 Atm.
 Atom     1 has atomic number  8 and mass  15.99491

 Molecular mass:    50.98823 amu.
 Principal axes and moments of inertia in atomic units:
                           1         2         3
     Eigenvalues --    22.43793 174.06825 196.50618
           X            0.88936  -0.45721   0.00000
           Y            0.45721   0.88936   0.00000
           Z           -0.00000   0.00000   1.00000
 This molecule is an asymmetric top.
 Rotational symmetry number  1.
 Rotational temperatures (Kelvin)      3.86016     0.49759     0.44077
 Rotational constants (GHZ):          80.43259    10.36801     9.18414
 Zero-point vibrational energy      14915.4 (Joules/Mol)
                                    3.56487 (Kcal/Mol)
 Warning -- explicit consideration of   2 degrees of freedom as
           vibrations may cause significant error
 Vibrational temperatures:    514.88   852.65  2220.30
          (Kelvin)

 Zero-point correction=                           0.005681 (Hartree/Particle)
 Thermal correction to Energy=                    0.009034
 Thermal correction to Enthalpy=                  0.009979
 Thermal correction to Gibbs Free Energy=        -0.019460
 Sum of electronic and zero-point Energies=           -250.170067
 Sum of electronic and thermal Energies=              -250.166713
 Sum of electronic and thermal Enthalpies=            -250.165769
 Sum of electronic and thermal Free Energies=         -250.195208

                     E (Thermal)             CV                S
                      KCal/Mol        Cal/Mol-Kelvin    Cal/Mol-Kelvin
 Total                    5.669              8.633             61.958
 Electronic               0.000              0.000              1.377
 Translational            0.889              2.981             37.710
 Rotational               0.889              2.981             21.267
 Vibrational              3.892              2.671              1.604
 Vibration     1          0.733              1.559              1.131
 Vibration     2          0.950              1.047              0.463

 Optimization completed.
    -- Stationary point found.
 Normal termination of Gaussian 16 at Sat Sep 30 01:32:26 2023.
 Gaussian 16:  ES64L-G16RevB.01 20-Dec-2017

 ---------------------------------
 # rohf/gen geom=check guess=check
 ---------------------------------

 -------------------------------
 fluoroperoxyl, ROHF/cc-pVTZ-F12
 -------------------------------
 Structure from the checkpoint file:  "foo.chk"
 Charge =  0 Multiplicity = 2

                         Standard orientation:
 ---------------------------------------------------------------------
 Center     Atomic      Atomic             Coordinates (Angstroms)
 Number     Number       Type             X           Y           Z
 ---------------------------------------------------------------------
      1          8           0        1.134225    0.215909    0.000000
      2          8           0        0.000000    0.568920    0.000000
      3          9           0       -1.008200   -0.697626    0.000000
 ---------------------------------------------------------------------

 SCF Done:  E(ROHF) =  -248.996696413     A.U. after   17 cycles

 The electronic state is 2-A".
 Alpha  occ. eigenvalues --  -26.31539 -20.85055 -20.76871  -1.74349  -1.53845
 Alpha  occ. eigenvalues --   -1.14076  -0.80907  -0.79263  -0.77415  -0.63741
 Alpha  occ. eigenvalues --   -0.63218  -0.52621  -0.17744
 Alpha virt. eigenvalues --    0.02952   0.09086   0.10821   0.12231   0.12522
 Alpha virt. eigenvalues --    0.17191   0.17272   0.18462   0.21695   0.23077
 Alpha virt. eigenvalues --    0.25829   0.31831   0.39690   0.45449   0.63268

 Mulliken charges and spin densities:
               1          2
     1  O    0.079826   0.800530
     2  O    0.188545   0.197157
     3  F   -0.268372   0.002313
 Sum of Mulliken charges =  -0.00000   1.00000

 Dipole moment (field-independent basis, Debye):
    X=              1.6160    Y=              1.3325    Z=              0.0000  Tot=              2.0945
 Quadrupole moment (field-independent basis, Debye-Ang):
   XX=            -15.8468   YY=            -15.2371   ZZ=            -14.5492
   XY=             -0.6019   XZ=             -0.0000   YZ=              0.0000

 Normal termination of Gaussian 16 at Sat Sep 30 01:32:33 2023.
