 Gaussian 16, Revision B.01,
 Gaussian 16:  ES64L-G16RevB.01 20-Dec-2017

 --------------------
 # b3lyp/gen opt freq
 --------------------

 ----------------------------
 fluoroperoxyl, B3LYP/pcseg-2
 ----------------------------
 Symbolic Z-matrix:
 Charge =  0 Multiplicity = 2

 SCF Done:  E(UB3LYP) =  -250.175205367     A.U. after   22 cycles
 SCF Done:  E(UB3LYP) =  -250.175500455     A.U. after   14 cycles
 SCF Done:  E(UB3LYP) =  -250.175743668     A.U. after   21 cycles
 SCF Done:  E(UB3LYP) =  -250.175747249     A.U. after   13 cycles
 SCF Done:  E(UB3LYP) =  -250.175747659     A.U. after   11 cycles
 Optimization completed.
    -- Stationary point found.
 Normal termination of Gaussian 16 at Wed Jun 15 17:40:53 2022.

 ------------------------------------------------------------------
 #N Geom=AllCheck Guess=TCheck SCRF=Check GenChk UB3LYP/ChkBas Freq
 ------------------------------------------------------------------

 Structure from the checkpoint file:  "/wrk/irikura/Gau-7913.chk"
 ----------------------------
 fluoroperoxyl, B3LYP/pcseg-2
 ----------------------------
 Charge =  0 Multiplicity = 2

                         Standard orientation:
 ---------------------------------------------------------------------
 Center     Atomic      Atomic             Coordinates (Angstroms)
 Number     Number       Type             X           Y           Z
 ---------------------------------------------------------------------
      1          8           0        1.134225    0.215909   -0.000000
      2          8           0        0.000000    0.568920    0.000000
      3          9           0       -1.008200   -0.697626    0.000000
 ---------------------------------------------------------------------

 SCF Done:  E(UB3LYP) =  -250.175747659     A.U. after    1 cycles

 The electronic state is 2-A".
 Alpha  occ. eigenvalues --  -24.68560 -19.40060 -19.32722  -1.39017  -1.14805
 Alpha  occ. eigenvalues --   -0.87718  -0.63747  -0.62701  -0.61281  -0.41925
 Alpha  occ. eigenvalues --   -0.40540  -0.38897  -0.35056
 Alpha virt. eigenvalues --   -0.16590   0.12664   0.24432   0.26407   0.29088
 Alpha virt. eigenvalues --    0.31253   0.34112   0.36561   0.37066   0.48669
 Alpha virt. eigenvalues --    0.48973   0.53810   0.70760   0.81529   1.15561

  Beta  occ. eigenvalues --  -24.69164 -19.38430 -19.30592  -1.35937  -1.15944
  Beta  occ. eigenvalues --   -0.82987  -0.61173  -0.58706  -0.55121  -0.41010
  Beta  occ. eigenvalues --   -0.40629  -0.38756
  Beta virt. eigenvalues --   -0.17564  -0.15652   0.14203   0.25037   0.28144
  Beta virt. eigenvalues --    0.29665   0.32712   0.34195   0.36825   0.39214
  Beta virt. eigenvalues --    0.48688   0.48787   0.53796   0.71731   0.81603

 Mulliken charges and spin densities:
               1          2
     1  O    0.046076   0.692931
     2  O    0.204349   0.477773
     3  F   -0.250425  -0.170704
 Sum of Mulliken charges =   0.00000   1.00000

 Dipole moment (field-independent basis, Debye):
    X=              1.3078    Y=              1.2785    Z=              0.0000  Tot=              1.8289
 Quadrupole moment (field-independent basis, Debye-Ang):
   XX=            -16.2573   YY=            -15.2161   ZZ=            -14.8665
   XY=             -0.5346   XZ=              0.0000   YZ=             -0.0000

  Exact polarizability:  24.867   6.534  14.379  -0.000   0.000   7.315
 Approx polarizability:  55.660  17.212  25.467  -0.000   0.000   9.087

                      1                      2                      3
                     A'                     A'                     A'
 Frequencies --    357.8293               592.6083              1543.1700
 Red. masses --     17.7005                16.3638                16.0050
 Frc consts  --      1.3353                 3.3859                22.4560
 IR Inten    --     65.0149                53.1168               145.0096

 - Thermochemistry -
 -------------------
 Temperature   298.150 Kelvin.  Pressure   1.00000 Atm.
 Atom     1 has atomic number  8 and mass  15.99491

 Molecular mass:    50.98823 amu.
 Principal axes and moments of inertia in atomic units:
                           1         2         3
     Eigenvalues --    22.43796 174.06835 196.50631
           X            0.88936  -0.45721   0.00000
           Y            0.45721   0.88936   0.00000
           Z           -0.00000  -0.00000   1.00000
 This molecule is an asymmetric top.
 Rotational symmetry number  1.
 Rotational temperatures (Kelvin)      3.86015     0.49759     0.44077
 Rotational constants (GHZ):          80.43250    10.36800     9.18414
 Zero-point vibrational energy      14915.1 (Joules/Mol)
                                    3.56479 (Kcal/Mol)
 Warning -- explicit consideration of   2 degrees of freedom as
           vibrations may cause significant error
 Vibrational temperatures:    514.84   852.63  2220.28
          (Kelvin)

 Zero-point correction=                           0.005681 (Hartree/Particle)
 Thermal correction to Energy=                    0.009034
 Thermal correction to Enthalpy=                  0.009978
 Thermal correction to Gibbs Free Energy=        -0.019460
 Sum of electronic and zero-point Energies=           -250.170067
 Sum of electronic and thermal Energies=              -250.166713
 Sum of electronic and thermal Enthalpies=            -250.165769
 Sum of electronic and thermal Free Energies=         -250.195208

                     E (Thermal)             CV                S
                      KCal/Mol        Cal/Mol-Kelvin    Cal/Mol-Kelvin
 Total                    5.669              8.633             61.959
 Electronic               0.000              0.000              1.377
 Translational            0.889              2.981             37.710
 Rotational               0.889              2.981             21.267
 Vibrational              3.892              2.671              1.604
 Vibration     1          0.733              1.559              1.132
 Vibration     2          0.950              1.048              0.463

 Optimization completed.
    -- Stationary point found.
 Normal termination of Gaussian 16 at Wed Jun 15 17:41:03 2022.
