 Gaussian 16, Revision B.01,
 Gaussian 16:  ES64L-G16RevB.01 20-Dec-2017

 --------------------
 # b3lyp/gen opt freq
 --------------------

 --------------------------------
 fluorine peroxide, B3LYP/pcseg-2
 --------------------------------
 Symbolic Z-matrix:
 Charge =  0 Multiplicity = 1

 SCF Done:  E(RB3LYP) =  -349.972120059     A.U. after   12 cycles
 SCF Done:  E(RB3LYP) =  -349.972420904     A.U. after   11 cycles
 SCF Done:  E(RB3LYP) =  -349.972762869     A.U. after   11 cycles
 SCF Done:  E(RB3LYP) =  -349.972893322     A.U. after   11 cycles
 SCF Done:  E(RB3LYP) =  -349.972916007     A.U. after    8 cycles
 SCF Done:  E(RB3LYP) =  -349.972918736     A.U. after    7 cycles
 Optimization completed.
    -- Stationary point found.
 Normal termination of Gaussian 16 at Wed Jun 15 16:47:56 2022.

 ------------------------------------------------------------------
 #N Geom=AllCheck Guess=TCheck SCRF=Check GenChk RB3LYP/ChkBas Freq
 ------------------------------------------------------------------

 Structure from the checkpoint file:  "/wrk/irikura/Gau-967.chk"
 --------------------------------
 fluorine peroxide, B3LYP/pcseg-2
 --------------------------------
 Charge =  0 Multiplicity = 1

                         Standard orientation:
 ---------------------------------------------------------------------
 Center     Atomic      Atomic             Coordinates (Angstroms)
 Number     Number       Type             X           Y           Z
 ---------------------------------------------------------------------
      1          9           0        0.547965    1.394365   -0.486688
      2          8           0        0.547965    0.275490    0.547524
      3          8           0       -0.547965   -0.275490    0.547524
      4          9           0       -0.547965   -1.394365   -0.486688
 ---------------------------------------------------------------------

 SCF Done:  E(RB3LYP) =  -349.972918736     A.U. after    1 cycles

 The electronic state is 1-A.
 Alpha  occ. eigenvalues --  -24.73297 -24.73297 -19.39042 -19.39017  -1.39425
 Alpha  occ. eigenvalues --   -1.22511  -1.17447  -0.88551  -0.66433  -0.63189
 Alpha  occ. eigenvalues --   -0.62130  -0.47657  -0.47552  -0.44797  -0.43818
 Alpha  occ. eigenvalues --   -0.39901  -0.39518
 Alpha virt. eigenvalues --   -0.15660  -0.15286   0.09484   0.23713   0.25895
 Alpha virt. eigenvalues --    0.27945   0.28570   0.35209   0.35646   0.36165
 Alpha virt. eigenvalues --    0.42293   0.43802   0.48273   0.53059   0.53355

 Mulliken charges:
               1
     1  F   -0.172573
     2  O    0.172573
     3  O    0.172573
     4  F   -0.172573
 Sum of Mulliken charges =   0.00000

 Dipole moment (field-independent basis, Debye):
    X=              0.0000    Y=             -0.0000    Z=              1.3582  Tot=              1.3582
 Quadrupole moment (field-independent basis, Debye-Ang):
   XX=            -20.2614   YY=            -22.3676   ZZ=            -19.7071
   XY=             -0.9560   XZ=              0.0000   YZ=             -0.0000

  Exact polarizability:  15.419   8.234  29.485  -0.000  -0.000  17.235
 Approx polarizability:  26.653  18.703  54.311   0.000   0.000  32.801

                      1                      2                      3
                      A                      A                      B
 Frequencies --    224.9991               468.6052               557.6048
 Red. masses --     18.4736                17.3543                17.1996
 Frc consts  --      0.5510                 2.2453                 3.1508
 IR Inten    --      0.2417                24.7513                75.4622

                      4                      5                      6
                      A                      B                      A
 Frequencies --    706.6928               735.9621              1189.7898
 Red. masses --     16.4525                16.6572                16.1497
 Frc consts  --      4.8411                 5.3157                13.4696
 IR Inten    --     72.7951               152.4333                34.7279

 - Thermochemistry -
 -------------------
 Temperature   298.150 Kelvin.  Pressure   1.00000 Atm.
 Atom     1 has atomic number  9 and mass  18.99840

 Molecular mass:    69.98664 amu.
 Principal axes and moments of inertia in atomic units:
                           1         2         3
     Eigenvalues --    84.00175 347.52848 396.20230
           X            0.42871  -0.00000   0.90344
           Y            0.90344  -0.00000  -0.42871
           Z            0.00000   1.00000  -0.00000
 This molecule is an asymmetric top.
 Rotational symmetry number  2.
 Rotational temperatures (Kelvin)      1.03110     0.24923     0.21861
 Rotational constants (GHZ):          21.48457     5.19307     4.55510
 Zero-point vibrational energy      23229.4 (Joules/Mol)
                                    5.55196 (Kcal/Mol)
 Warning -- explicit consideration of   3 degrees of freedom as
           vibrations may cause significant error
 Vibrational temperatures:    323.72   674.22   802.27  1016.77  1058.89
          (Kelvin)           1711.84

 Zero-point correction=                           0.008848 (Hartree/Particle)
 Thermal correction to Energy=                    0.012862
 Thermal correction to Enthalpy=                  0.013807
 Thermal correction to Gibbs Free Energy=        -0.017094
 Sum of electronic and zero-point Energies=           -349.964071
 Sum of electronic and thermal Energies=              -349.960056
 Sum of electronic and thermal Enthalpies=            -349.959112
 Sum of electronic and thermal Free Energies=         -349.990013

                     E (Thermal)             CV                S
                      KCal/Mol        Cal/Mol-Kelvin    Cal/Mol-Kelvin
 Total                    8.071             11.997             65.035
 Electronic               0.000              0.000              0.000
 Translational            0.889              2.981             38.654
 Rotational               0.889              2.981             22.585
 Vibrational              6.294              6.036              3.796
 Vibration     1          0.650              1.803              1.918
 Vibration     2          0.826              1.320              0.741
 Vibration     3          0.913              1.123              0.529

 Optimization completed.
    -- Stationary point found.
 Normal termination of Gaussian 16 at Wed Jun 15 16:48:09 2022.
