 Gaussian 16, Revision B.01,

 ---------------------------------------
 # b3lyp/gen opt freq CPHF(Grid=OneStep)
 ---------------------------------------

 ----------------------
 fulvene, B3LYP/pcseg-2
 ----------------------
 Symbolic Z-matrix:
 Charge =  0 Multiplicity = 1

 SCF Done:  E(RB3LYP) =  -232.283423048     A.U. after   13 cycles
 Optimization completed.
    -- Stationary point found.
 Normal termination of Gaussian 16 at Sat Sep 30 10:29:21 2023.

 ------------------------------------------------------------------
 #N Geom=AllCheck Guess=TCheck SCRF=Check GenChk RB3LYP/ChkBas Freq
 ------------------------------------------------------------------

 Structure from the checkpoint file:  "fulvene.chk"
 ----------------------
 fulvene, B3LYP/pcseg-2
 ----------------------
 Charge =  0 Multiplicity = 1

 SCF Done:  E(RB3LYP) =  -232.283423048     A.U. after    1 cycles

  Exact polarizability:  40.139   0.000  67.269   0.000  -0.000 104.102
 Approx polarizability:  61.025   0.000  98.696   0.000   0.000 187.918

                      1                      2                      3
                     B1                     B2                     A2
 Frequencies --    209.3335               344.4716               495.1954
 Red. masses --      3.3109                 2.2897                 1.8309
 Frc consts  --      0.0855                 0.1601                 0.2645
 IR Inten    --      5.1171                 0.4103                 0.0000

                      4                      5                      6
                     B1                     A1                     A2
 Frequencies --    638.0665               680.6848               696.5040
 Red. masses --      1.8952                 4.6989                 1.2838
 Frc consts  --      0.4546                 1.2827                 0.3669
 IR Inten    --     49.0833                 0.0360                 0.0000

                      7                      8                      9
                     A2                     B1                     B2
 Frequencies --    783.5220               795.9748               808.7672
 Red. masses --      1.2438                 1.7426                 5.9264
 Frc consts  --      0.4499                 0.6505                 2.2839
 IR Inten    --      0.0000                51.3963                 0.8822

                     10                     11                     12
                     A1                     B1                     A2
 Frequencies --    910.2936               942.1161               955.0077
 Red. masses --      2.6741                 1.2860                 1.4147
 Frc consts  --      1.3055                 0.6725                 0.7602
 IR Inten    --      8.9210                 1.4588                 0.0000

                     13                     14                     15
                     B2                     B1                     A1
 Frequencies --    964.7140               973.7868               999.8087
 Red. masses --      1.5937                 1.3892                 3.0896
 Frc consts  --      0.8739                 0.7762                 1.8196
 IR Inten    --      4.2642                36.8675                 2.6066

                     16                     17                     18
                     A1                     B2                     B2
 Frequencies --   1106.5388              1108.9729              1259.5158
 Red. masses --      1.1019                 1.1483                 1.8790
 Frc consts  --      0.7950                 0.8321                 1.7562
 IR Inten    --      1.7732                 8.8038                 0.3903

                     19                     20                     21
                     B2                     A1                     A1
 Frequencies --   1338.2546              1374.2200              1456.7927
 Red. masses --      2.1378                 1.7083                 1.3430
 Frc consts  --      2.2558                 1.9008                 1.6793
 IR Inten    --      0.2014                24.5428                 0.0101

                     22                     23                     24
                     A1                     B2                     A1
 Frequencies --   1528.5407              1613.9096              1697.0529
 Red. masses --      4.8501                 5.0091                 5.6129
 Frc consts  --      6.6766                 7.6873                 9.5242
 IR Inten    --     32.5748                 0.1492                 1.5855

                     25                     26                     27
                     A1                     B2                     A1
 Frequencies --   3143.1361              3204.7432              3214.4568
 Red. masses --      1.0587                 1.0875                 1.0888
 Frc consts  --      6.1622                 6.5807                 6.6283
 IR Inten    --      6.1682                 2.7738                 7.2356

                     28                     29                     30
                     B2                     B2                     A1
 Frequencies --   3227.4741              3231.0000              3236.6359
 Red. masses --      1.1166                 1.0997                 1.1057
 Frc consts  --      6.8530                 6.7638                 6.8246
 IR Inten    --      5.9005                10.4351                 3.0329

 - Thermochemistry -
 -------------------
 Temperature   298.150 Kelvin.  Pressure   1.00000 Atm.
 Atom     1 has atomic number  6 and mass  12.00000

 Molecular mass:    78.04695 amu.
 Principal axes and moments of inertia in atomic units:
                           1         2         3
     Eigenvalues --   218.79766 471.41370 690.21137
           X            0.00000  -0.00000   1.00000
           Y            0.00000   1.00000  -0.00000
           Z            1.00000  -0.00000   0.00000
 This molecule is an asymmetric top.
 Rotational symmetry number  2.
 Rotational temperatures (Kelvin)      0.39586     0.18373     0.12549
 Rotational constants (GHZ):           8.24845     3.82836     2.61477
 Zero-point vibrational energy     256835.2 (Joules/Mol)
                                   61.38508 (Kcal/Mol)
 Warning -- explicit consideration of   3 degrees of freedom as
           vibrations may cause significant error
 Vibrational temperatures:    301.18   495.62   712.48   918.04   979.35
          (Kelvin)           1002.11  1127.31  1145.23  1163.64  1309.71
                             1355.49  1374.04  1388.01  1401.06  1438.50
                             1592.06  1595.56  1812.16  1925.45  1977.20
                             2096.00  2199.23  2322.06  2441.68  4522.27
                             4610.91  4624.89  4643.62  4648.69  4656.80

 Zero-point correction=                           0.097823 (Hartree/Particle)
 Thermal correction to Energy=                    0.102767
 Thermal correction to Enthalpy=                  0.103712
 Thermal correction to Gibbs Free Energy=         0.070526
 Sum of electronic and zero-point Energies=           -232.185600
 Sum of electronic and thermal Energies=              -232.180656
 Sum of electronic and thermal Enthalpies=            -232.179711
 Sum of electronic and thermal Free Energies=         -232.212897

                     E (Thermal)             CV                S
                      KCal/Mol        Cal/Mol-Kelvin    Cal/Mol-Kelvin
 Total                   64.488             19.028             69.845
 Electronic               0.000              0.000              0.000
 Translational            0.889              2.981             38.979
 Rotational               0.889              2.981             24.391
 Vibrational             62.710             13.067              6.475
 Vibration     1          0.642              1.827              2.049
 Vibration     2          0.723              1.587              1.191
 Vibration     3          0.851              1.261              0.670

 Optimization completed.
    -- Stationary point found.
 Normal termination of Gaussian 16 at Sat Sep 30 10:36:59 2023.
 Gaussian 16:  ES64L-G16RevB.01 20-Dec-2017

 ---------------------------------
 # rohf/gen geom=check guess=check
 ---------------------------------

 -------------------------
 fulvene, ROHF/cc-pVTZ-F12
 -------------------------
 Structure from the checkpoint file:  "fulvene.chk"
 Charge =  0 Multiplicity = 1

                         Standard orientation:
 ---------------------------------------------------------------------
 Center     Atomic      Atomic             Coordinates (Angstroms)
 Number     Number       Type             X           Y           Z
 ---------------------------------------------------------------------
      1          6           0       -0.000000    0.000000    0.758594
      2          6           0       -0.000000    0.000000    2.096538
      3          6           0        0.000000    1.175613   -0.125702
      4          6           0       -0.000000   -1.175613   -0.125702
      5          6           0        0.000000    0.735843   -1.400148
      6          6           0       -0.000000   -0.735843   -1.400148
      7          1           0        0.000000    0.922633    2.661654
      8          1           0       -0.000000   -0.922633    2.661654
      9          1           0        0.000000    2.197562    0.218114
     10          1           0       -0.000000   -2.197562    0.218114
     11          1           0        0.000000    1.346571   -2.290063
     12          1           0       -0.000000   -1.346571   -2.290063
 ---------------------------------------------------------------------

 SCF Done:  E(ROHF) =  -230.737602842     A.U. after   12 cycles

 The electronic state is 1-A1.
 Alpha  occ. eigenvalues --  -11.24752 -11.24224 -11.23149 -11.23070 -11.22491
 Alpha  occ. eigenvalues --  -11.22488  -1.16384  -1.02771  -0.97027  -0.86102
 Alpha  occ. eigenvalues --   -0.74435  -0.72705  -0.68874  -0.60845  -0.56591
 Alpha  occ. eigenvalues --   -0.55712  -0.52121  -0.50412  -0.49056  -0.34627
 Alpha  occ. eigenvalues --   -0.31026
 Alpha virt. eigenvalues --    0.04532   0.05068   0.05291   0.05392   0.06891
 Alpha virt. eigenvalues --    0.06895   0.07990   0.09891   0.10133   0.10265
 Alpha virt. eigenvalues --    0.10871   0.12109   0.12555   0.13284   0.13313

 Mulliken charges and spin densities:
               1          2
     1  C    0.134378   0.000000
     2  C   -0.366982   0.000000
     3  C   -0.182994   0.000000
     4  C   -0.182994   0.000000
     5  C   -0.168342   0.000000
     6  C   -0.168342   0.000000
     7  H    0.153107   0.000000
     8  H    0.153107   0.000000
     9  H    0.152816   0.000000
    10  H    0.152816   0.000000
    11  H    0.161714   0.000000
    12  H    0.161714   0.000000
 Sum of Mulliken charges =  -0.00000   0.00000

 Dipole moment (field-independent basis, Debye):
    X=             -0.0000    Y=             -0.0000    Z=              0.5056  Tot=              0.5056
 Quadrupole moment (field-independent basis, Debye-Ang):
   XX=            -41.0776   YY=            -33.1222   ZZ=            -30.3213
   XY=              0.0000   XZ=             -0.0000   YZ=              0.0000

 Normal termination of Gaussian 16 at Sat Sep 30 10:40:16 2023.
