 Gaussian 16, Revision B.01,
 Gaussian 16:  ES64L-G16RevB.01 20-Dec-2017

 --------------------
 # b3lyp/gen opt freq
 --------------------

 ----------------------
 fulvene, B3LYP/pcseg-2
 ----------------------
 Symbolic Z-matrix:
 Charge =  0 Multiplicity = 1

 SCF Done:  E(RB3LYP) =  -232.283354443     A.U. after   13 cycles
 SCF Done:  E(RB3LYP) =  -232.283421246     A.U. after    8 cycles
 SCF Done:  E(RB3LYP) =  -232.283423048     A.U. after    7 cycles
 Optimization completed.
    -- Stationary point found.
 Normal termination of Gaussian 16 at Thu Jun 16 12:13:21 2022.

 ------------------------------------------------------------------
 #N Geom=AllCheck Guess=TCheck SCRF=Check GenChk RB3LYP/ChkBas Freq
 ------------------------------------------------------------------

 Structure from the checkpoint file:  "/wrk/irikura/Gau-29036.chk"
 ----------------------
 fulvene, B3LYP/pcseg-2
 ----------------------
 Charge =  0 Multiplicity = 1

                         Standard orientation:
 ---------------------------------------------------------------------
 Center     Atomic      Atomic             Coordinates (Angstroms)
 Number     Number       Type             X           Y           Z
 ---------------------------------------------------------------------
      1          6           0        0.000000    0.000000    0.758594
      2          6           0        0.000000    0.000000    2.096538
      3          6           0        0.000000    1.175613   -0.125702
      4          6           0       -0.000000   -1.175613   -0.125702
      5          6           0        0.000000    0.735843   -1.400148
      6          6           0       -0.000000   -0.735843   -1.400148
      7          1           0        0.000000    0.922633    2.661654
      8          1           0       -0.000000   -0.922633    2.661654
      9          1           0        0.000000    2.197562    0.218114
     10          1           0       -0.000000   -2.197562    0.218114
     11          1           0        0.000000    1.346571   -2.290063
     12          1           0       -0.000000   -1.346571   -2.290063
 ---------------------------------------------------------------------

 SCF Done:  E(RB3LYP) =  -232.283423048     A.U. after    1 cycles

 The electronic state is 1-A1.
 Alpha  occ. eigenvalues --  -10.19247 -10.18967 -10.17463 -10.17429 -10.16815
 Alpha  occ. eigenvalues --  -10.16814  -0.86998  -0.76329  -0.71260  -0.63651
 Alpha  occ. eigenvalues --   -0.54783  -0.53549  -0.50970  -0.44665  -0.40667
 Alpha  occ. eigenvalues --   -0.40082  -0.37773  -0.37323  -0.35067  -0.26774
 Alpha  occ. eigenvalues --   -0.22744
 Alpha virt. eigenvalues --   -0.07804   0.02308   0.03712   0.04455   0.05726
 Alpha virt. eigenvalues --    0.06462   0.06756   0.07195   0.09398   0.12353
 Alpha virt. eigenvalues --    0.14463   0.16608   0.17063   0.17175   0.20661

 Mulliken charges:
               1
     1  C    0.299923
     2  C   -0.123335
     3  C   -0.190190
     4  C   -0.190190
     5  C    0.005303
     6  C    0.005303
     7  H    0.056984
     8  H    0.056984
     9  H    0.019245
    10  H    0.019245
    11  H    0.020364
    12  H    0.020364
 Sum of Mulliken charges =  -0.00000

 Dipole moment (field-independent basis, Debye):
    X=              0.0000    Y=              0.0000    Z=              0.5814  Tot=              0.5814
 Quadrupole moment (field-independent basis, Debye-Ang):
   XX=            -40.2594   YY=            -33.2083   ZZ=            -30.8381
   XY=              0.0000   XZ=             -0.0000   YZ=             -0.0000

  Exact polarizability:  40.137  -0.000  67.269  -0.000  -0.000 104.101
 Approx polarizability:  61.025   0.000  98.696   0.000   0.000 187.918

                      1                      2                      3
                     B1                     B2                     A2
 Frequencies --    209.3362               344.4686               495.1948
 Red. masses --      3.3109                 2.2897                 1.8309
 Frc consts  --      0.0855                 0.1601                 0.2645
 IR Inten    --      5.1165                 0.4102                 0.0000

                      4                      5                      6
                     B1                     A1                     A2
 Frequencies --    638.0657               680.6853               696.5038
 Red. masses --      1.8952                 4.6989                 1.2838
 Frc consts  --      0.4546                 1.2827                 0.3669
 IR Inten    --     49.0844                 0.0360                 0.0000

                      7                      8                      9
                     A2                     B1                     B2
 Frequencies --    783.5219               795.9762               808.7638
 Red. masses --      1.2438                 1.7426                 5.9263
 Frc consts  --      0.4499                 0.6505                 2.2839
 IR Inten    --      0.0000                51.3986                 0.8819

                     10                     11                     12
                     A1                     B1                     A2
 Frequencies --    910.2942               942.1173               955.0083
 Red. masses --      2.6741                 1.2860                 1.4147
 Frc consts  --      1.3055                 0.6725                 0.7602
 IR Inten    --      8.9204                 1.4588                 0.0000

                     13                     14                     15
                     B2                     B1                     A1
 Frequencies --    964.7148               973.7860               999.8117
 Red. masses --      1.5937                 1.3892                 3.0896
 Frc consts  --      0.8739                 0.7762                 1.8196
 IR Inten    --      4.2648                36.8673                 2.6074

                     16                     17                     18
                     A1                     B2                     B2
 Frequencies --   1106.5420              1108.9731              1259.5144
 Red. masses --      1.1020                 1.1483                 1.8790
 Frc consts  --      0.7950                 0.8321                 1.7563
 IR Inten    --      1.7727                 8.8044                 0.3903

                     19                     20                     21
                     B2                     A1                     A1
 Frequencies --   1338.2532              1374.2235              1456.7914
 Red. masses --      2.1378                 1.7083                 1.3430
 Frc consts  --      2.2557                 1.9008                 1.6793
 IR Inten    --      0.2015                24.5423                 0.0102

                     22                     23                     24
                     A1                     B2                     A1
 Frequencies --   1528.5435              1613.9090              1697.0564
 Red. masses --      4.8504                 5.0091                 5.6131
 Frc consts  --      6.6771                 7.6873                 9.5246
 IR Inten    --     32.5765                 0.1492                 1.5854

                     25                     26                     27
                     A1                     B2                     A1
 Frequencies --   3143.1360              3204.7445              3214.4592
 Red. masses --      1.0587                 1.0875                 1.0888
 Frc consts  --      6.1622                 6.5807                 6.6283
 IR Inten    --      6.1702                 2.7749                 7.2345

                     28                     29                     30
                     B2                     B2                     A1
 Frequencies --   3227.4712              3231.0058              3236.6395
 Red. masses --      1.1166                 1.0997                 1.1057
 Frc consts  --      6.8530                 6.7638                 6.8246
 IR Inten    --      5.9150                10.4178                 3.0338

 - Thermochemistry -
 -------------------
 Temperature   298.150 Kelvin.  Pressure   1.00000 Atm.
 Atom     1 has atomic number  6 and mass  12.00000

 Molecular mass:    78.04695 amu.
 Principal axes and moments of inertia in atomic units:
                           1         2         3
     Eigenvalues --   218.79770 471.41379 690.21149
           X            0.00000  -0.00000   1.00000
           Y            0.00000   1.00000   0.00000
           Z            1.00000  -0.00000   0.00000
 This molecule is an asymmetric top.
 Rotational symmetry number  2.
 Rotational temperatures (Kelvin)      0.39586     0.18373     0.12549
 Rotational constants (GHZ):           8.24845     3.82836     2.61477
 Zero-point vibrational energy     256835.3 (Joules/Mol)
                                   61.38511 (Kcal/Mol)
 Warning -- explicit consideration of   3 degrees of freedom as
           vibrations may cause significant error
 Vibrational temperatures:    301.19   495.61   712.47   918.03   979.35
          (Kelvin)           1002.11  1127.31  1145.23  1163.63  1309.71
                             1355.50  1374.04  1388.01  1401.06  1438.51
                             1592.07  1595.56  1812.16  1925.45  1977.20
                             2096.00  2199.23  2322.06  2441.69  4522.27
                             4610.91  4624.89  4643.61  4648.70  4656.80

 Zero-point correction=                           0.097823 (Hartree/Particle)
 Thermal correction to Energy=                    0.102767
 Thermal correction to Enthalpy=                  0.103712
 Thermal correction to Gibbs Free Energy=         0.070526
 Sum of electronic and zero-point Energies=           -232.185600
 Sum of electronic and thermal Energies=              -232.180656
 Sum of electronic and thermal Enthalpies=            -232.179711
 Sum of electronic and thermal Free Energies=         -232.212897

                     E (Thermal)             CV                S
                      KCal/Mol        Cal/Mol-Kelvin    Cal/Mol-Kelvin
 Total                   64.488             19.028             69.844
 Electronic               0.000              0.000              0.000
 Translational            0.889              2.981             38.979
 Rotational               0.889              2.981             24.391
 Vibrational             62.710             13.067              6.475
 Vibration     1          0.642              1.826              2.049
 Vibration     2          0.723              1.587              1.191
 Vibration     3          0.851              1.261              0.670

 Optimization completed.
    -- Stationary point found.
 Normal termination of Gaussian 16 at Thu Jun 16 12:15:03 2022.
