 Gaussian 16, Revision B.01,
 Gaussian 16:  ES64L-G16RevB.01 20-Dec-2017

 --------------------
 # b3lyp/gen opt freq
 --------------------

 -----------------
 H2, B3LYP/pcseg-2
 -----------------
 Symbolic Z-matrix:
 Charge =  0 Multiplicity = 1

 SCF Done:  E(RB3LYP) =  -1.18009859685     A.U. after    6 cycles
 SCF Done:  E(RB3LYP) =  -1.18012503567     A.U. after    4 cycles
 Optimization completed.
    -- Stationary point found.
 Normal termination of Gaussian 16 at Thu Feb 24 14:36:54 2022.

 ------------------------------------------------------------------
 #N Geom=AllCheck Guess=TCheck SCRF=Check GenChk RB3LYP/ChkBas Freq
 ------------------------------------------------------------------

 Structure from the checkpoint file:  "/wrk/irikura/Gau-17544.chk"
 -----------------
 H2, B3LYP/pcseg-2
 -----------------
 Charge =  0 Multiplicity = 1

                         Standard orientation:
 ---------------------------------------------------------------------
 Center     Atomic      Atomic             Coordinates (Angstroms)
 Number     Number       Type             X           Y           Z
 ---------------------------------------------------------------------
      1          1           0        0.000000    0.000000    0.371937
      2          1           0        0.000000    0.000000   -0.371937
 ---------------------------------------------------------------------

 SCF Done:  E(RB3LYP) =  -1.18012503567     A.U. after    1 cycles

 The electronic state is 1-SGG.
 Alpha  occ. eigenvalues --   -0.43359
 Alpha virt. eigenvalues --    0.03941   0.11374   0.31591   0.60112   0.60112
 Alpha virt. eigenvalues --    0.95454   1.08505   1.08505   1.09969   1.50435
 Alpha virt. eigenvalues --    2.36849   3.43396   3.43396   3.56849   3.56849

 Mulliken charges:
               1
     1  H    0.000000
     2  H    0.000000
 Sum of Mulliken charges =   0.00000

 Dipole moment (field-independent basis, Debye):
    X=              0.0000    Y=             -0.0000    Z=              0.0000  Tot=              0.0000
 Quadrupole moment (field-independent basis, Debye-Ang):
   XX=             -2.1079   YY=             -2.1079   ZZ=             -1.5584
   XY=             -0.0000   XZ=             -0.0000   YZ=              0.0000

  Exact polarizability:   2.231   0.000   2.231  -0.000  -0.000   6.983
 Approx polarizability:   2.382  -0.000   2.382  -0.000  -0.000   8.275

                      1
                     SGG
 Frequencies --   4413.9844
 Red. masses --      1.0078
 Frc consts  --     11.5690
 IR Inten    --      0.0000

 - Thermochemistry -
 -------------------
 Temperature   298.150 Kelvin.  Pressure   1.00000 Atm.
 Atom     1 has atomic number  1 and mass   1.00783

 Molecular mass:     2.01565 amu.
 Principal axes and moments of inertia in atomic units:
                           1         2         3
     Eigenvalues --     0.00000   0.99575   0.99575
           X           -0.00000   1.00000  -0.00000
           Y            0.00000   0.00000   1.00000
           Z            1.00000   0.00000  -0.00000
 This molecule is a prolate symmetric top.
 Rotational symmetry number  2.
 Rotational temperature (Kelvin)     86.98352
 Rotational constant (GHZ):        1812.442288
 Zero-point vibrational energy      26401.5 (Joules/Mol)
                                    6.31011 (Kcal/Mol)
 Vibrational temperatures:   6350.74
          (Kelvin)

 Zero-point correction=                           0.010056 (Hartree/Particle)
 Thermal correction to Energy=                    0.012416
 Thermal correction to Enthalpy=                  0.013360
 Thermal correction to Gibbs Free Energy=        -0.001434
 Sum of electronic and zero-point Energies=             -1.170069
 Sum of electronic and thermal Energies=                -1.167709
 Sum of electronic and thermal Enthalpies=              -1.166765
 Sum of electronic and thermal Free Energies=           -1.181559

                     E (Thermal)             CV                S
                      KCal/Mol        Cal/Mol-Kelvin    Cal/Mol-Kelvin
 Total                    7.791              4.968             31.138
 Electronic               0.000              0.000              0.000
 Translational            0.889              2.981             28.080
 Rotational               0.592              1.987              3.058
 Vibrational              6.310              0.000              0.000

 Optimization completed.
    -- Stationary point found.
 Normal termination of Gaussian 16 at Thu Feb 24 14:36:57 2022.
