 Gaussian 16, Revision B.01,
 Gaussian 16:  ES64L-G16RevB.01 20-Dec-2017

 --------------------
 # b3lyp/gen opt freq
 --------------------

 ------------------
 H2O, B3LYP/pcseg-2
 ------------------
 Symbolic Z-matrix:
 Charge =  0 Multiplicity = 1

 SCF Done:  E(RB3LYP) =  -76.4645452539     A.U. after    9 cycles
 SCF Done:  E(RB3LYP) =  -76.4671917016     A.U. after    9 cycles
 SCF Done:  E(RB3LYP) =  -76.4672462164     A.U. after    7 cycles
 Optimization completed.
    -- Stationary point found.
 Normal termination of Gaussian 16 at Tue Feb  1 13:41:55 2022.

 ------------------------------------------------------------------
 #N Geom=AllCheck Guess=TCheck SCRF=Check GenChk RB3LYP/ChkBas Freq
 ------------------------------------------------------------------

 Structure from the checkpoint file:  "/wrk/irikura/Gau-17683.chk"
 ------------------
 H2O, B3LYP/pcseg-2
 ------------------
 Charge =  0 Multiplicity = 1

                         Standard orientation:
 ---------------------------------------------------------------------
 Center     Atomic      Atomic             Coordinates (Angstroms)
 Number     Number       Type             X           Y           Z
 ---------------------------------------------------------------------
      1          8           0        0.000000    0.000000    0.116847
      2          1           0       -0.000000    0.762184   -0.467388
      3          1           0       -0.000000   -0.762184   -0.467388
 ---------------------------------------------------------------------

 SCF Done:  E(RB3LYP) =  -76.4672462164     A.U. after    1 cycles

 The electronic state is 1-A1.
 Alpha  occ. eigenvalues --  -19.12989  -1.01786  -0.53887  -0.39537  -0.32109
 Alpha virt. eigenvalues --   -0.00168   0.06356   0.27515   0.29530   0.33084
 Alpha virt. eigenvalues --    0.33735   0.44780   0.54069   0.70526   0.76086
 Alpha virt. eigenvalues --    0.86581   1.03898   1.16308   1.16385   1.40688

 Mulliken charges:
               1
     1  O   -0.396497
     2  H    0.198248
     3  H    0.198248
 Sum of Mulliken charges =   0.00000

 Dipole moment (field-independent basis, Debye):
    X=             -0.0000    Y=             -0.0000    Z=             -1.9910  Tot=              1.9910
 Quadrupole moment (field-independent basis, Debye-Ang):
   XX=             -7.6550   YY=             -4.4118   ZZ=             -6.4196
   XY=              0.0000   XZ=              0.0000   YZ=              0.0000

  Exact polarizability:   6.632  -0.000   8.636   0.000   0.000   7.522
 Approx polarizability:   7.214   0.000  10.921   0.000   0.000   9.227

                      1                      2                      3
                     A1                     A1                     B2
 Frequencies --   1625.3090              3810.6951              3914.2166
 Red. masses --      1.0834                 1.0445                 1.0824
 Frc consts  --      1.6862                 8.9367                 9.7708
 IR Inten    --     71.2407                 5.8538                54.8475

 - Thermochemistry -
 -------------------
 Temperature   298.150 Kelvin.  Pressure   1.00000 Atm.
 Atom     1 has atomic number  8 and mass  15.99491

 Molecular mass:    18.01056 amu.
 Principal axes and moments of inertia in atomic units:
                           1         2         3
     Eigenvalues --     2.18194   4.18151   6.36345
           X           -0.00000   0.00000   1.00000
           Y            1.00000  -0.00000   0.00000
           Z            0.00000   1.00000  -0.00000
 This molecule is an asymmetric top.
 Rotational symmetry number  2.
 Rotational temperatures (Kelvin)     39.69584    20.71356    13.61116
 Rotational constants (GHZ):         827.12710   431.60063   283.61064
 Zero-point vibrational energy      55926.7 (Joules/Mol)
                                   13.36681 (Kcal/Mol)
 Vibrational temperatures:   2338.46  5482.74  5631.68
          (Kelvin)

 Zero-point correction=                           0.021301 (Hartree/Particle)
 Thermal correction to Energy=                    0.024137
 Thermal correction to Enthalpy=                  0.025081
 Thermal correction to Gibbs Free Energy=         0.003664
 Sum of electronic and zero-point Energies=            -76.445945
 Sum of electronic and thermal Energies=               -76.443109
 Sum of electronic and thermal Enthalpies=             -76.442165
 Sum of electronic and thermal Free Energies=          -76.463582

                     E (Thermal)             CV                S
                      KCal/Mol        Cal/Mol-Kelvin    Cal/Mol-Kelvin
 Total                   15.146              6.010             45.076
 Electronic               0.000              0.000              0.000
 Translational            0.889              2.981             34.608
 Rotational               0.889              2.981             10.461
 Vibrational             13.369              0.048              0.007

 Optimization completed.
    -- Stationary point found.
 Normal termination of Gaussian 16 at Tue Feb  1 13:42:06 2022.
