 Gaussian 16, Revision B.01,

 ---------------------------------------
 # b3lyp/gen opt freq CPHF(Grid=OneStep)
 ---------------------------------------

 --------------------------------
 hydrogen peroxide, B3LYP/pcseg-2
 --------------------------------
 Symbolic Z-matrix:
 Charge =  0 Multiplicity = 1

 SCF Done:  E(RB3LYP) =  -151.620733262     A.U. after   10 cycles
 Optimization completed.
    -- Stationary point found.
 Normal termination of Gaussian 16 at Sat Sep 30 19:22:07 2023.

 ------------------------------------------------------------------
 #N Geom=AllCheck Guess=TCheck SCRF=Check GenChk RB3LYP/ChkBas Freq
 ------------------------------------------------------------------

 Structure from the checkpoint file:  "h2o2.chk"
 --------------------------------
 hydrogen peroxide, B3LYP/pcseg-2
 --------------------------------
 Charge =  0 Multiplicity = 1

 SCF Done:  E(RB3LYP) =  -151.620733262     A.U. after    1 cycles

  Exact polarizability:  11.673   1.670  16.894  -0.000   0.000   9.985
 Approx polarizability:  15.067   1.826  23.645  -0.000  -0.000  12.273

                      1                      2                      3
                      A                      A                      B
 Frequencies --    359.2622               948.6949              1317.3348
 Red. masses --      1.0823                14.6443                 1.1028
 Frc consts  --      0.0823                 7.7655                 1.1276
 IR Inten    --    191.3034                 0.9012                99.6573

                      4                      5                      6
                      A                      B                      A
 Frequencies --   1443.7789              3771.3330              3772.6746
 Red. masses --      1.0886                 1.0675                 1.0699
 Frc consts  --      1.3370                 8.9454                 8.9723
 IR Inten    --      0.3344                58.8568                13.3264

 - Thermochemistry -
 -------------------
 Temperature   298.150 Kelvin.  Pressure   1.00000 Atm.
 Atom     1 has atomic number  8 and mass  15.99491

 Molecular mass:    34.00548 amu.
 Principal axes and moments of inertia in atomic units:
                           1         2         3
     Eigenvalues --     5.92890  68.12822  70.65669
           X            0.08448   0.99642   0.00000
           Y            0.99642  -0.08448   0.00000
           Z           -0.00000  -0.00000   1.00000
 This molecule is an asymmetric top.
 Rotational symmetry number  2.
 Rotational temperatures (Kelvin)     14.60877     1.27134     1.22584
 Rotational constants (GHZ):         304.39728    26.49036    25.54240
 Zero-point vibrational energy      69461.6 (Joules/Mol)
                                   16.60173 (Kcal/Mol)
 Warning -- explicit consideration of   1 degrees of freedom as
           vibrations may cause significant error
 Vibrational temperatures:    516.90  1364.96  1895.35  2077.28  5426.11
          (Kelvin)           5428.04

 Zero-point correction=                           0.026457 (Hartree/Particle)
 Thermal correction to Energy=                    0.029702
 Thermal correction to Enthalpy=                  0.030646
 Thermal correction to Gibbs Free Energy=         0.004798
 Sum of electronic and zero-point Energies=           -151.594277
 Sum of electronic and thermal Energies=              -151.591032
 Sum of electronic and thermal Enthalpies=            -151.590087
 Sum of electronic and thermal Free Energies=         -151.615936

                     E (Thermal)             CV                S
                      KCal/Mol        Cal/Mol-Kelvin    Cal/Mol-Kelvin
 Total                   18.638              8.186             54.402
 Electronic               0.000              0.000              0.000
 Translational            0.889              2.981             36.503
 Rotational               0.889              2.981             16.619
 Vibrational             16.861              2.224              1.281
 Vibration     1          0.734              1.556              1.125

 Optimization completed.
    -- Stationary point found.
 Normal termination of Gaussian 16 at Sat Sep 30 19:22:26 2023.
 Gaussian 16:  ES64L-G16RevB.01 20-Dec-2017

 ---------------------------------
 # rohf/gen geom=check guess=check
 ---------------------------------

 -----------------------------------
 hydrogen peroxide, ROHF/cc-pVTZ-F12
 -----------------------------------
 Structure from the checkpoint file:  "h2o2.chk"
 Charge =  0 Multiplicity = 1

                         Standard orientation:
 ---------------------------------------------------------------------
 Center     Atomic      Atomic             Coordinates (Angstroms)
 Number     Number       Type             X           Y           Z
 ---------------------------------------------------------------------
      1          8           0        0.000000    0.725426   -0.055676
      2          8           0       -0.000000   -0.725426   -0.055676
      3          1           0        0.805701    0.902841    0.445412
      4          1           0       -0.805701   -0.902841    0.445412
 ---------------------------------------------------------------------

 SCF Done:  E(ROHF) =  -150.848240564     A.U. after   11 cycles

 The electronic state is 1-A.
 Alpha  occ. eigenvalues --  -20.63093 -20.63064  -1.47572  -1.21567  -0.71325
 Alpha  occ. eigenvalues --   -0.71289  -0.61135  -0.52181  -0.48570
 Alpha virt. eigenvalues --    0.08345   0.10872   0.12120   0.13539   0.16682
 Alpha virt. eigenvalues --    0.17712   0.18145   0.22380   0.25313   0.27762
 Alpha virt. eigenvalues --    0.35718   0.46559   0.52077   0.53221   0.53650

 Mulliken charges and spin densities:
               1          2
     1  O   -0.413912   0.000000
     2  O   -0.413912   0.000000
     3  H    0.413912   0.000000
     4  H    0.413912   0.000000
 Sum of Mulliken charges =  -0.00000   0.00000

 Dipole moment (field-independent basis, Debye):
    X=             -0.0000    Y=             -0.0000    Z=              1.7918  Tot=              1.7918
 Quadrupole moment (field-independent basis, Debye-Ang):
   XX=             -9.3602   YY=            -11.4226   ZZ=            -11.7245
   XY=              3.1420   XZ=             -0.0000   YZ=             -0.0000

 Normal termination of Gaussian 16 at Sat Sep 30 19:22:30 2023.
