 Gaussian 16, Revision B.01,
 Gaussian 16:  ES64L-G16RevB.01 20-Dec-2017

 --------------------
 # b3lyp/gen opt freq
 --------------------

 --------------------------------
 hydrogen peroxide, B3LYP/pcseg-2
 --------------------------------
 Symbolic Z-matrix:
 Charge =  0 Multiplicity = 1

 SCF Done:  E(RB3LYP) =  -151.620704966     A.U. after   10 cycles
 SCF Done:  E(RB3LYP) =  -151.620726941     A.U. after    9 cycles
 SCF Done:  E(RB3LYP) =  -151.620732570     A.U. after    7 cycles
 SCF Done:  E(RB3LYP) =  -151.620733262     A.U. after    6 cycles
 Optimization completed.
    -- Stationary point found.
 Normal termination of Gaussian 16 at Tue Jun 14 21:02:32 2022.

 ------------------------------------------------------------------
 #N Geom=AllCheck Guess=TCheck SCRF=Check GenChk RB3LYP/ChkBas Freq
 ------------------------------------------------------------------

 Structure from the checkpoint file:  "/wrk/irikura/Gau-13203.chk"
 --------------------------------
 hydrogen peroxide, B3LYP/pcseg-2
 --------------------------------
 Charge =  0 Multiplicity = 1

                         Standard orientation:
 ---------------------------------------------------------------------
 Center     Atomic      Atomic             Coordinates (Angstroms)
 Number     Number       Type             X           Y           Z
 ---------------------------------------------------------------------
      1          8           0        0.000000    0.725426   -0.055676
      2          8           0       -0.000000   -0.725426   -0.055676
      3          1           0        0.805701    0.902841    0.445412
      4          1           0       -0.805701   -0.902841    0.445412
 ---------------------------------------------------------------------

 SCF Done:  E(RB3LYP) =  -151.620733262     A.U. after    1 cycles

 The electronic state is 1-A.
 Alpha  occ. eigenvalues --  -19.19154 -19.19147  -1.12910  -0.91072  -0.54456
 Alpha  occ. eigenvalues --   -0.50587  -0.43403  -0.33726  -0.29431
 Alpha virt. eigenvalues --   -0.01063   0.00348   0.05804   0.27204   0.28534
 Alpha virt. eigenvalues --    0.29931   0.31580   0.35811   0.38410   0.40510
 Alpha virt. eigenvalues --    0.44360   0.55802   0.66303   0.75568   0.75799

 Mulliken charges:
               1
     1  O   -0.218507
     2  O   -0.218507
     3  H    0.218507
     4  H    0.218507
 Sum of Mulliken charges =   0.00000

 Dipole moment (field-independent basis, Debye):
    X=              0.0000    Y=              0.0000    Z=              1.7571  Tot=              1.7571
 Quadrupole moment (field-independent basis, Debye-Ang):
   XX=             -9.7008   YY=            -11.5755   ZZ=            -12.0108
   XY=              3.0437   XZ=              0.0000   YZ=              0.0000

  Exact polarizability:  11.674   1.670  16.894  -0.000   0.000   9.985
 Approx polarizability:  15.067   1.826  23.645   0.000   0.000  12.273

                      1                      2                      3
                      A                      A                      B
 Frequencies --    359.2480               948.7002              1317.3388
 Red. masses --      1.0823                14.6442                 1.1028
 Frc consts  --      0.0823                 7.7656                 1.1276
 IR Inten    --    191.3038                 0.9009                99.6569

                      4                      5                      6
                      A                      B                      A
 Frequencies --   1443.7821              3771.3266              3772.6685
 Red. masses --      1.0886                 1.0675                 1.0699
 Frc consts  --      1.3370                 8.9454                 8.9723
 IR Inten    --      0.3345                58.8559                13.3260

 - Thermochemistry -
 -------------------
 Temperature   298.150 Kelvin.  Pressure   1.00000 Atm.
 Atom     1 has atomic number  8 and mass  15.99491

 Molecular mass:    34.00548 amu.
 Principal axes and moments of inertia in atomic units:
                           1         2         3
     Eigenvalues --     5.92891  68.12816  70.65663
           X            0.08448   0.99642   0.00000
           Y            0.99642  -0.08448   0.00000
           Z           -0.00000  -0.00000   1.00000
 This molecule is an asymmetric top.
 Rotational symmetry number  2.
 Rotational temperatures (Kelvin)     14.60875     1.27134     1.22584
 Rotational constants (GHZ):         304.39696    26.49039    25.54242
 Zero-point vibrational energy      69461.5 (Joules/Mol)
                                   16.60171 (Kcal/Mol)
 Warning -- explicit consideration of   1 degrees of freedom as
           vibrations may cause significant error
 Vibrational temperatures:    516.88  1364.97  1895.36  2077.28  5426.10
          (Kelvin)           5428.03

 Zero-point correction=                           0.026457 (Hartree/Particle)
 Thermal correction to Energy=                    0.029702
 Thermal correction to Enthalpy=                  0.030646
 Thermal correction to Gibbs Free Energy=         0.004798
 Sum of electronic and zero-point Energies=           -151.594277
 Sum of electronic and thermal Energies=              -151.591032
 Sum of electronic and thermal Enthalpies=            -151.590087
 Sum of electronic and thermal Free Energies=         -151.615936

                     E (Thermal)             CV                S
                      KCal/Mol        Cal/Mol-Kelvin    Cal/Mol-Kelvin
 Total                   18.638              8.186             54.402
 Electronic               0.000              0.000              0.000
 Translational            0.889              2.981             36.503
 Rotational               0.889              2.981             16.619
 Vibrational             16.861              2.224              1.281
 Vibration     1          0.734              1.556              1.125

 Optimization completed.
    -- Stationary point found.
 Normal termination of Gaussian 16 at Tue Jun 14 21:02:45 2022.
