 Gaussian 16, Revision B.01,
 Gaussian 16:  ES64L-G16RevB.01 20-Dec-2017

 --------------------
 # b3lyp/gen opt freq
 --------------------

 -------------------------------
 hydrogen sulfide, B3LYP/pcseg-2
 -------------------------------
 Symbolic Z-matrix:
 Charge =  0 Multiplicity = 1

 SCF Done:  E(RB3LYP) =  -399.435205996     A.U. after   10 cycles
 SCF Done:  E(RB3LYP) =  -399.435271689     A.U. after    7 cycles
 SCF Done:  E(RB3LYP) =  -399.435272170     A.U. after    5 cycles
 Optimization completed.
    -- Stationary point found.
 Normal termination of Gaussian 16 at Fri Feb 25 20:48:17 2022.

 ------------------------------------------------------------------
 #N Geom=AllCheck Guess=TCheck SCRF=Check GenChk RB3LYP/ChkBas Freq
 ------------------------------------------------------------------

 Structure from the checkpoint file:  "/wrk/irikura/Gau-23019.chk"
 -------------------------------
 hydrogen sulfide, B3LYP/pcseg-2
 -------------------------------
 Charge =  0 Multiplicity = 1

                         Standard orientation:
 ---------------------------------------------------------------------
 Center     Atomic      Atomic             Coordinates (Angstroms)
 Number     Number       Type             X           Y           Z
 ---------------------------------------------------------------------
      1         16           0        0.000000   -0.000000    0.103185
      2          1           0        0.000000    0.969668   -0.825476
      3          1           0       -0.000000   -0.969668   -0.825476
 ---------------------------------------------------------------------

 SCF Done:  E(RB3LYP) =  -399.435272170     A.U. after    1 cycles

 The electronic state is 1-A1.
 Alpha  occ. eigenvalues --  -88.84705  -7.94152  -5.90430  -5.90125  -5.89537
 Alpha  occ. eigenvalues --   -0.74683  -0.44965  -0.37177  -0.26741
 Alpha virt. eigenvalues --    0.00220   0.00838   0.11015   0.16353   0.25073
 Alpha virt. eigenvalues --    0.25266   0.34348   0.36570   0.43541   0.45251
 Alpha virt. eigenvalues --    0.51640   0.68787   0.72962   0.87841   0.92039

 Mulliken charges:
               1
     1  S   -0.130398
     2  H    0.065199
     3  H    0.065199
 Sum of Mulliken charges =   0.00000

 Dipole moment (field-independent basis, Debye):
    X=             -0.0000    Y=             -0.0000    Z=             -1.1786  Tot=              1.1786
 Quadrupole moment (field-independent basis, Debye-Ang):
   XX=            -16.6565   YY=            -12.3295   ZZ=            -13.6312
   XY=              0.0000   XZ=              0.0000   YZ=              0.0000

  Exact polarizability:  15.572   0.000  19.353  -0.000   0.000  18.586
 Approx polarizability:  20.109   0.000  29.585   0.000  -0.000  26.891

                      1                      2                      3
                     A1                     A1                     B2
 Frequencies --   1213.1208              2679.1225              2691.8030
 Red. masses --      1.0395                 1.0357                 1.0399
 Frc consts  --      0.9013                 4.3801                 4.4394
 IR Inten    --      1.7607                 0.7612                 1.0700

 - Thermochemistry -
 -------------------
 Temperature   298.150 Kelvin.  Pressure   1.00000 Atm.
 Atom     1 has atomic number 16 and mass  31.97207

 Molecular mass:    33.98772 amu.
 Principal axes and moments of inertia in atomic units:
                           1         2         3
     Eigenvalues --     5.83950   6.76798  12.60748
           X            0.00000   0.00000   1.00000
           Y            1.00000   0.00000   0.00000
           Z            0.00000   1.00000   0.00000
 This molecule is an asymmetric top.
 Rotational symmetry number  2.
 Rotational temperatures (Kelvin)     14.83242    12.79760     6.87004
 Rotational constants (GHZ):         309.05754   266.65868   143.14843
 Zero-point vibrational energy      39381.3 (Joules/Mol)
                                    9.41237 (Kcal/Mol)
 Vibrational temperatures:   1745.41  3854.66  3872.90
          (Kelvin)

 Zero-point correction=                           0.015000 (Hartree/Particle)
 Thermal correction to Energy=                    0.017848
 Thermal correction to Enthalpy=                  0.018792
 Thermal correction to Gibbs Free Energy=        -0.004554
 Sum of electronic and zero-point Energies=           -399.420273
 Sum of electronic and thermal Energies=              -399.417424
 Sum of electronic and thermal Enthalpies=            -399.416480
 Sum of electronic and thermal Free Energies=         -399.439827

                     E (Thermal)             CV                S
                      KCal/Mol        Cal/Mol-Kelvin    Cal/Mol-Kelvin
 Total                   11.200              6.160             49.137
 Electronic               0.000              0.000              0.000
 Translational            0.889              2.981             36.501
 Rotational               0.889              2.981             12.597
 Vibrational              9.422              0.198              0.039

 Optimization completed.
    -- Stationary point found.
 Normal termination of Gaussian 16 at Fri Feb 25 20:48:24 2022.
