 Gaussian 16, Revision B.01,
 Gaussian 16:  ES64L-G16RevB.01 20-Dec-2017

 -------------------------------
 # b3lyp/gen opt freq symm=loose
 -------------------------------

 ----------------------------
 sulfuric acid, B3LYP/pcseg-2
 ----------------------------
 Symbolic Z-matrix:
 Charge =  0 Multiplicity = 1

 SCF Done:  E(RB3LYP) =  -700.443822672     A.U. after   11 cycles
 SCF Done:  E(RB3LYP) =  -700.444980522     A.U. after   10 cycles
 SCF Done:  E(RB3LYP) =  -700.445103397     A.U. after    8 cycles
 SCF Done:  E(RB3LYP) =  -700.445110241     A.U. after    8 cycles
 SCF Done:  E(RB3LYP) =  -700.445113347     A.U. after    7 cycles
 SCF Done:  E(RB3LYP) =  -700.445114915     A.U. after    7 cycles
 SCF Done:  E(RB3LYP) =  -700.445116653     A.U. after    8 cycles
 SCF Done:  E(RB3LYP) =  -700.445117547     A.U. after    8 cycles
 Optimization completed.
    -- Stationary point found.
 Normal termination of Gaussian 16 at Fri Sep  8 15:14:29 2023.

 ------------------------------------------------------------------
 #N Geom=AllCheck Guess=TCheck SCRF=Check GenChk RB3LYP/ChkBas Freq
 ------------------------------------------------------------------

 Structure from the checkpoint file:  "/wrk/irikura/Gau-7500.chk"
 ----------------------------
 sulfuric acid, B3LYP/pcseg-2
 ----------------------------
 Charge =  0 Multiplicity = 1

                         Standard orientation:
 ---------------------------------------------------------------------
 Center     Atomic      Atomic             Coordinates (Angstroms)
 Number     Number       Type             X           Y           Z
 ---------------------------------------------------------------------
      1         16           0        0.000000    0.000000    0.159370
      2          8           0        0.000000    1.257361    0.827685
      3          8           0       -0.000000   -1.257361    0.827685
      4          8           0        1.241341   -0.046026   -0.846156
      5          8           0       -1.241341    0.046026   -0.846156
      6          1           0       -1.457600   -0.854220   -1.127192
      7          1           0        1.457600    0.854220   -1.127192
 ---------------------------------------------------------------------

 SCF Done:  E(RB3LYP) =  -700.445117547     A.U. after    1 cycles

 The electronic state is 1-A.
 Alpha  occ. eigenvalues --  -89.11582 -19.21413 -19.21412 -19.15570 -19.15569
 Alpha  occ. eigenvalues --   -8.16940  -6.13397  -6.13284  -6.13011  -1.21500
 Alpha  occ. eigenvalues --   -1.09691  -1.07490  -1.05977  -0.71048  -0.64266
 Alpha  occ. eigenvalues --   -0.54629  -0.52929  -0.50348  -0.46244  -0.43856
 Alpha  occ. eigenvalues --   -0.40917  -0.40094  -0.36190  -0.36149  -0.34827
 Alpha virt. eigenvalues --   -0.02788   0.00504   0.06875   0.07220   0.08050
 Alpha virt. eigenvalues --    0.11511   0.21017   0.22636   0.23203   0.24464
 Alpha virt. eigenvalues --    0.28834   0.29093   0.30828   0.32098   0.33402

 Mulliken charges:
               1
     1  S    1.127728
     2  O   -0.478377
     3  O   -0.478377
     4  O   -0.318758
     5  O   -0.318758
     6  H    0.233270
     7  H    0.233270
 Sum of Mulliken charges =  -0.00000

 Dipole moment (field-independent basis, Debye):
    X=             -0.0000    Y=             -0.0000    Z=             -3.2438  Tot=              3.2438
 Quadrupole moment (field-independent basis, Debye-Ang):
   XX=            -32.3305   YY=            -37.2955   ZZ=            -34.9219
   XY=              5.4137   XZ=              0.0000   YZ=              0.0000

  Exact polarizability:  31.361   1.551  35.306   0.000  -0.000  31.436
 Approx polarizability:  42.451   1.155  55.791   0.000   0.000  44.384

                      1                      2                      3
                      A                      B                      A
 Frequencies --    249.6804               315.1271               371.2641
 Red. masses --      1.2836                 1.1215                12.5455
 Frc consts  --      0.0471                 0.0656                 1.0188
 IR Inten    --    102.5499                61.8641                 3.0468

                      4                      5                      6
                      A                      B                      A
 Frequencies --    432.0558               490.4104               536.2290
 Red. masses --      3.1617                 4.7817                14.2382
 Frc consts  --      0.3477                 0.6776                 2.4122
 IR Inten    --     16.3063                45.3531                45.0579

                      7                      8                      9
                      B                      A                      B
 Frequencies --    546.0938               805.5340               859.3720
 Red. masses --     14.5853                15.7172                19.1485
 Frc consts  --      2.5627                 6.0089                 8.3320
 IR Inten    --     25.9632               119.7277               357.8285

                     10                     11                     12
                      A                      B                      A
 Frequencies --   1143.6834              1159.5431              1210.0427
 Red. masses --      1.1243                 1.2835                16.1400
 Frc consts  --      0.8665                 1.0168                13.9237
 IR Inten    --     78.5139                84.5759               178.3671

                     13                     14                     15
                      B                      B                      A
 Frequencies --   1455.7378              3763.3367              3767.5396
 Red. masses --      9.4311                 1.0655                 1.0658
 Frc consts  --     11.7755                 8.8906                 8.9134
 IR Inten    --    308.1508               204.0713                51.9348

 - Thermochemistry -
 -------------------
 Temperature   298.150 Kelvin.  Pressure   1.00000 Atm.
 Atom     1 has atomic number 16 and mass  31.97207

 Molecular mass:    97.96738 amu.
 Principal axes and moments of inertia in atomic units:
                           1         2         3
     Eigenvalues --   357.05594 364.19984 377.42421
           X            0.93046  -0.36640   0.00000
           Y            0.36640   0.93046  -0.00000
           Z           -0.00000   0.00000   1.00000
 This molecule is an asymmetric top.
 Rotational symmetry number  2.
 Rotational temperatures (Kelvin)      0.24258     0.23782     0.22949
 Rotational constants (GHZ):           5.05451     4.95536     4.78173
 Zero-point vibrational energy     102314.5 (Joules/Mol)
                                   24.45375 (Kcal/Mol)
 Warning -- explicit consideration of   7 degrees of freedom as
           vibrations may cause significant error
 Vibrational temperatures:    359.23   453.40   534.17   621.63   705.59
          (Kelvin)            771.51   785.71  1158.98  1236.44  1645.51
                             1668.32  1740.98  2094.48  5414.60  5420.65

 Zero-point correction=                           0.038970 (Hartree/Particle)
 Thermal correction to Energy=                    0.044133
 Thermal correction to Enthalpy=                  0.045077
 Thermal correction to Gibbs Free Energy=         0.011342
 Sum of electronic and zero-point Energies=           -700.406148
 Sum of electronic and thermal Energies=              -700.400985
 Sum of electronic and thermal Enthalpies=            -700.400040
 Sum of electronic and thermal Free Energies=         -700.433776

                     E (Thermal)             CV                S
                      KCal/Mol        Cal/Mol-Kelvin    Cal/Mol-Kelvin
 Total                   27.694             17.854             71.003
 Electronic               0.000              0.000              0.000
 Translational            0.889              2.981             39.657
 Rotational               0.889              2.981             24.021
 Vibrational             25.916             11.892              7.325
 Vibration     1          0.662              1.763              1.733
 Vibration     2          0.702              1.645              1.335
 Vibration     3          0.743              1.531              1.075
 Vibration     4          0.793              1.400              0.852
 Vibration     5          0.846              1.271              0.683
 Vibration     6          0.891              1.170              0.573
 Vibration     7          0.901              1.148              0.552

 Optimization completed.
    -- Stationary point found.
 Normal termination of Gaussian 16 at Fri Sep  8 15:15:39 2023.
