 Gaussian 16, Revision B.01,
 Gaussian 16:  ES64L-G16RevB.01 20-Dec-2017

 -------------------------------
 # b3lyp/gen opt freq symm=loose
 -------------------------------

 -----------------------------
 sulfurous acid, B3LYP/pcseg-2
 -----------------------------
 Symbolic Z-matrix:
 Charge =  0 Multiplicity = 1

 SCF Done:  E(RB3LYP) =  -625.188449761     A.U. after   12 cycles
 SCF Done:  E(RB3LYP) =  -625.189294967     A.U. after   10 cycles
 SCF Done:  E(RB3LYP) =  -625.189353903     A.U. after   10 cycles
 SCF Done:  E(RB3LYP) =  -625.189391345     A.U. after   10 cycles
 SCF Done:  E(RB3LYP) =  -625.189399030     A.U. after    8 cycles
 SCF Done:  E(RB3LYP) =  -625.189399439     A.U. after    7 cycles
 Optimization completed.
    -- Stationary point found.
 Normal termination of Gaussian 16 at Tue Sep 12 11:27:14 2023.

 ------------------------------------------------------------------
 #N Geom=AllCheck Guess=TCheck SCRF=Check GenChk RB3LYP/ChkBas Freq
 ------------------------------------------------------------------

 Structure from the checkpoint file:  "/wrk/irikura/Gau-337441.chk"
 -----------------------------
 sulfurous acid, B3LYP/pcseg-2
 -----------------------------
 Charge =  0 Multiplicity = 1

                         Standard orientation:
 ---------------------------------------------------------------------
 Center     Atomic      Atomic             Coordinates (Angstroms)
 Number     Number       Type             X           Y           Z
 ---------------------------------------------------------------------
      1         16           0        0.295444    0.339768   -0.000000
      2          8           0       -1.025936    0.957509   -0.000000
      3          8           0        0.295444   -0.704043    1.259403
      4          8           0        0.295444   -0.704043   -1.259403
      5          1           0       -0.623356   -0.915831    1.490403
      6          1           0       -0.623356   -0.915831   -1.490403
 ---------------------------------------------------------------------

 SCF Done:  E(RB3LYP) =  -625.189399439     A.U. after    1 cycles

 The electronic state is 1-A'.
 Alpha  occ. eigenvalues --  -89.03514 -19.18668 -19.18668 -19.13753  -8.10252
 Alpha  occ. eigenvalues --   -6.06641  -6.06535  -6.05793  -1.14670  -1.06037
 Alpha  occ. eigenvalues --   -1.03136  -0.71710  -0.58917  -0.52464  -0.49941
 Alpha  occ. eigenvalues --   -0.47020  -0.40789  -0.39204  -0.36928  -0.33407
 Alpha  occ. eigenvalues --   -0.30740
 Alpha virt. eigenvalues --   -0.01121  -0.00938   0.01527   0.03727   0.08000
 Alpha virt. eigenvalues --    0.17556   0.23602   0.24197   0.25793   0.28500
 Alpha virt. eigenvalues --    0.31386   0.31666   0.32460   0.35056   0.37577

 Mulliken charges:
               1
     1  S    0.883687
     2  O   -0.563141
     3  O   -0.362882
     4  O   -0.362882
     5  H    0.202609
     6  H    0.202609
 Sum of Mulliken charges =   0.00000

 Dipole moment (field-independent basis, Debye):
    X=             -0.7278    Y=             -1.4091    Z=             -0.0000  Tot=              1.5860
 Quadrupole moment (field-independent basis, Debye-Ang):
   XX=            -30.8523   YY=            -30.8540   ZZ=            -28.7088
   XY=              5.5914   XZ=              0.0000   YZ=              0.0000

  Exact polarizability:  30.337  -2.287  30.912  -0.000  -0.000  34.223
 Approx polarizability:  48.165  -6.591  45.821   0.000   0.000  48.551

                      1                      2                      3
                     A"                     A'                     A'
 Frequencies --    157.0431               335.2489               414.9222
 Red. masses --      1.2448                 2.2993                 1.8770
 Frc consts  --      0.0181                 0.1523                 0.1904
 IR Inten    --     21.6621                31.6674               126.0053

                      4                      5                      6
                     A"                     A'                     A"
 Frequencies --    445.5510               485.8393               750.3196
 Red. masses --      4.2899                 3.4861                13.3010
 Frc consts  --      0.5018                 0.4848                 4.4119
 IR Inten    --     50.7527                15.2767               375.8679

                      7                      8                      9
                     A'                     A"                     A'
 Frequencies --    760.1492              1068.9419              1099.3404
 Red. masses --     14.8869                 1.1453                 1.6649
 Frc consts  --      5.0682                 0.7710                 1.1855
 IR Inten    --    156.8601                52.5070                13.0220

                     10                     11                     12
                     A'                     A"                     A'
 Frequencies --   1237.0305              3704.1160              3707.3070
 Red. masses --      4.0988                 1.0649                 1.0652
 Frc consts  --      3.6954                 8.6084                 8.6255
 IR Inten    --    187.1718                40.0111                97.5471

 - Thermochemistry -
 -------------------
 Temperature   298.150 Kelvin.  Pressure   1.00000 Atm.
 Atom     1 has atomic number 16 and mass  31.97207

 Molecular mass:    81.97247 amu.
 Principal axes and moments of inertia in atomic units:
                           1         2         3
     Eigenvalues --   210.85657 234.34652 370.87201
           X            0.00000  -0.57808   0.81598
           Y            0.00000   0.81598   0.57808
           Z            1.00000   0.00000  -0.00000
 This molecule is an asymmetric top.
 Rotational symmetry number  1.
 Rotational temperatures (Kelvin)      0.41077     0.36960     0.23354
 Rotational constants (GHZ):           8.55909     7.70116     4.86621
 Zero-point vibrational energy      84730.4 (Joules/Mol)
                                   20.25104 (Kcal/Mol)
 Warning -- explicit consideration of   5 degrees of freedom as
           vibrations may cause significant error
 Vibrational temperatures:    225.95   482.35   596.98   641.05   699.01
          (Kelvin)           1079.54  1093.69  1537.97  1581.71  1779.81
                             5329.40  5333.99

 Zero-point correction=                           0.032272 (Hartree/Particle)
 Thermal correction to Energy=                    0.037164
 Thermal correction to Enthalpy=                  0.038108
 Thermal correction to Gibbs Free Energy=         0.004639
 Sum of electronic and zero-point Energies=           -625.157127
 Sum of electronic and thermal Energies=              -625.152236
 Sum of electronic and thermal Enthalpies=            -625.151292
 Sum of electronic and thermal Free Energies=         -625.184760

                     E (Thermal)             CV                S
                      KCal/Mol        Cal/Mol-Kelvin    Cal/Mol-Kelvin
 Total                   23.321             15.776             70.441
 Electronic               0.000              0.000              0.000
 Translational            0.889              2.981             39.125
 Rotational               0.889              2.981             24.420
 Vibrational             21.543              9.815              6.896
 Vibration     1          0.621              1.895              2.585
 Vibration     2          0.716              1.605              1.235
 Vibration     3          0.778              1.438              0.909
 Vibration     4          0.805              1.371              0.809
 Vibration     5          0.842              1.281              0.694

 Optimization completed.
    -- Stationary point found.
 Normal termination of Gaussian 16 at Tue Sep 12 11:27:59 2023.
