 Gaussian 16, Revision B.01,

 ---------------------------------------
 # b3lyp/gen opt freq CPHF(Grid=OneStep)
 ---------------------------------------

 ----------------------------
 sulfuric acid, B3LYP/pcseg-2
 ----------------------------
 Symbolic Z-matrix:
 Charge =  0 Multiplicity = 1

 SCF Done:  E(RB3LYP) =  -700.445117546     A.U. after   12 cycles
 Optimization completed.
    -- Stationary point found.
 Normal termination of Gaussian 16 at Fri Sep 29 15:08:13 2023.

 ------------------------------------------------------------------
 #N Geom=AllCheck Guess=TCheck SCRF=Check GenChk RB3LYP/ChkBas Freq
 ------------------------------------------------------------------

 Structure from the checkpoint file:  "h2so4.chk"
 ----------------------------
 sulfuric acid, B3LYP/pcseg-2
 ----------------------------
 Charge =  0 Multiplicity = 1

 SCF Done:  E(RB3LYP) =  -700.445117546     A.U. after    1 cycles

  Exact polarizability:  31.360   1.551  35.306   0.000  -0.000  31.436
 Approx polarizability:  42.451   1.155  55.791   0.000   0.000  44.384

                      1                      2                      3
                      A                      B                      A
 Frequencies --    249.6483               315.0740               371.2629
 Red. masses --      1.2836                 1.1215                12.5459
 Frc consts  --      0.0471                 0.0656                 1.0189
 IR Inten    --    102.5550                61.8702                 3.0455

                      4                      5                      6
                      A                      B                      A
 Frequencies --    432.0512               490.4101               536.2293
 Red. masses --      3.1621                 4.7818                14.2384
 Frc consts  --      0.3478                 0.6776                 2.4122
 IR Inten    --     16.3024                45.3515                45.0530

                      7                      8                      9
                      B                      A                      B
 Frequencies --    546.0927               805.5341               859.3702
 Red. masses --     14.5853                15.7170                19.1482
 Frc consts  --      2.5627                 6.0088                 8.3318
 IR Inten    --     25.9643               119.7238               357.7966

                     10                     11                     12
                      A                      B                      A
 Frequencies --   1143.6787              1159.5402              1210.0420
 Red. masses --      1.1243                 1.2835                16.1415
 Frc consts  --      0.8665                 1.0168                13.9250
 IR Inten    --     78.5027                84.5808               178.3675

                     13                     14                     15
                      B                      B                      A
 Frequencies --   1455.7362              3763.3361              3767.5396
 Red. masses --      9.4314                 1.0655                 1.0658
 Frc consts  --     11.7759                 8.8906                 8.9134
 IR Inten    --    308.1548               204.0771                51.9346

 - Thermochemistry -
 -------------------
 Temperature   298.150 Kelvin.  Pressure   1.00000 Atm.
 Atom     1 has atomic number 16 and mass  31.97207

 Molecular mass:    97.96738 amu.
 Principal axes and moments of inertia in atomic units:
                           1         2         3
     Eigenvalues --   357.05590 364.19973 377.42426
           X            0.93046  -0.36640   0.00000
           Y            0.36640   0.93046  -0.00000
           Z           -0.00000   0.00000   1.00000
 This molecule is an asymmetric top.
 Rotational symmetry number  2.
 Rotational temperatures (Kelvin)      0.24258     0.23782     0.22949
 Rotational constants (GHZ):           5.05451     4.95536     4.78173
 Zero-point vibrational energy     102313.9 (Joules/Mol)
                                   24.45361 (Kcal/Mol)
 Warning -- explicit consideration of   7 degrees of freedom as
           vibrations may cause significant error
 Vibrational temperatures:    359.19   453.32   534.16   621.63   705.59
          (Kelvin)            771.51   785.71  1158.98  1236.44  1645.50
                             1668.32  1740.98  2094.48  5414.60  5420.65

 Zero-point correction=                           0.038969 (Hartree/Particle)
 Thermal correction to Energy=                    0.044133
 Thermal correction to Enthalpy=                  0.045077
 Thermal correction to Gibbs Free Energy=         0.011341
 Sum of electronic and zero-point Energies=           -700.406148
 Sum of electronic and thermal Energies=              -700.400985
 Sum of electronic and thermal Enthalpies=            -700.400041
 Sum of electronic and thermal Free Energies=         -700.433776

                     E (Thermal)             CV                S
                      KCal/Mol        Cal/Mol-Kelvin    Cal/Mol-Kelvin
 Total                   27.694             17.854             71.003
 Electronic               0.000              0.000              0.000
 Translational            0.889              2.981             39.657
 Rotational               0.889              2.981             24.021
 Vibrational             25.916             11.892              7.325
 Vibration     1          0.662              1.763              1.733
 Vibration     2          0.702              1.645              1.336
 Vibration     3          0.743              1.531              1.075
 Vibration     4          0.793              1.400              0.852
 Vibration     5          0.846              1.271              0.683
 Vibration     6          0.891              1.170              0.573
 Vibration     7          0.901              1.148              0.552

 Optimization completed.
    -- Stationary point found.
 Normal termination of Gaussian 16 at Fri Sep 29 15:10:38 2023.
 Gaussian 16:  ES64L-G16RevB.01 20-Dec-2017

 ---------------------------------
 # rohf/gen geom=check guess=check
 ---------------------------------

 -------------------------------
 sulfuric acid, ROHF/cc-pVTZ-F12
 -------------------------------
 Structure from the checkpoint file:  "h2so4.chk"
 Charge =  0 Multiplicity = 1

                         Standard orientation:
 ---------------------------------------------------------------------
 Center     Atomic      Atomic             Coordinates (Angstroms)
 Number     Number       Type             X           Y           Z
 ---------------------------------------------------------------------
      1         16           0        0.000000    0.000000    0.159370
      2          8           0        0.000000    1.257361    0.827685
      3          8           0       -0.000000   -1.257361    0.827685
      4          8           0        1.241341   -0.046026   -0.846156
      5          8           0       -1.241341    0.046026   -0.846156
      6          1           0       -1.457600   -0.854220   -1.127192
      7          1           0        1.457600    0.854220   -1.127192
 ---------------------------------------------------------------------

 SCF Done:  E(ROHF) =  -698.299439703     A.U. after   10 cycles

 The electronic state is 1-A.
 Alpha  occ. eigenvalues --  -92.25880 -20.65585 -20.65583 -20.58686 -20.58684
 Alpha  occ. eigenvalues --   -9.21896  -6.90598  -6.90545  -6.90433  -1.56631
 Alpha  occ. eigenvalues --   -1.43874  -1.41251  -1.39491  -0.92750  -0.83430
 Alpha  occ. eigenvalues --   -0.74858  -0.73287  -0.70376  -0.64651  -0.63345
 Alpha  occ. eigenvalues --   -0.58464  -0.57107  -0.53602  -0.53213  -0.51350
 Alpha virt. eigenvalues --    0.04076   0.05631   0.07079   0.07366   0.12146
 Alpha virt. eigenvalues --    0.13048   0.14122   0.14411   0.15723   0.19396
 Alpha virt. eigenvalues --    0.19720   0.20437   0.20604   0.20792   0.21377

 Mulliken charges and spin densities:
               1          2
     1  S    1.921564   0.000000
     2  O   -0.684264   0.000000
     3  O   -0.684264   0.000000
     4  O   -0.689943   0.000000
     5  O   -0.689943   0.000000
     6  H    0.413425   0.000000
     7  H    0.413425   0.000000
 Sum of Mulliken charges =  -0.00000   0.00000

 Dipole moment (field-independent basis, Debye):
    X=             -0.0000    Y=              0.0000    Z=             -3.4691  Tot=              3.4691
 Quadrupole moment (field-independent basis, Debye-Ang):
   XX=            -31.8309   YY=            -37.3243   ZZ=            -34.6678
   XY=              5.5299   XZ=             -0.0000   YZ=             -0.0000

 Normal termination of Gaussian 16 at Fri Sep 29 15:11:35 2023.
