 Gaussian 16, Revision B.01,

 ---------------------------------------
 # b3lyp/gen opt freq CPHF(Grid=OneStep)
 ---------------------------------------

 --------------------------
 diacetylene, B3LYP/pcseg-2
 --------------------------
 Symbolic Z-matrix:
 Charge =  0 Multiplicity = 1

 SCF Done:  E(RB3LYP) =  -153.549733269     A.U. after   11 cycles
 Optimization completed.
    -- Stationary point found.
 Normal termination of Gaussian 16 at Wed Sep 27 22:28:15 2023.

 ------------------------------------------------------------------
 #N Geom=AllCheck Guess=TCheck SCRF=Check GenChk RB3LYP/ChkBas Freq
 ------------------------------------------------------------------

 Structure from the checkpoint file:  "hc4h.chk"
 --------------------------
 diacetylene, B3LYP/pcseg-2
 --------------------------
 Charge =  0 Multiplicity = 1

 SCF Done:  E(RB3LYP) =  -153.549733269     A.U. after    1 cycles

  Exact polarizability:  23.032   0.000  23.032   0.000   0.000  87.820
 Approx polarizability:  29.908  -0.000  29.908  -0.000  -0.000 177.921

                      1                      2                      3
                     PIU                    PIU                    PIG
 Frequencies --    237.8164               237.8164               530.7472
 Red. masses --      3.7795                 3.7795                 7.7910
 Frc consts  --      0.1259                 0.1259                 1.2931
 IR Inten    --      8.6126                 8.6126                 0.0000

                      4                      5                      6
                     PIG                    PIG                    PIG
 Frequencies --    530.7472               663.5028               663.5028
 Red. masses --      7.7910                 1.2382                 1.2382
 Frc consts  --      1.2931                 0.3212                 0.3212
 IR Inten    --      0.0000                 0.0000                 0.0000

                      7                      8                      9
                     PIU                    PIU                    SGG
 Frequencies --    668.6698               668.6698               916.4439
 Red. masses --      1.2914                 1.2914                 6.9993
 Frc consts  --      0.3402                 0.3402                 3.4635
 IR Inten    --     95.5780                95.5780                 0.0000

                     10                     11                     12
                     SGU                    SGG                    SGG
 Frequencies --   2110.6071              2277.9909              3470.2309
 Red. masses --      5.7413                 6.7265                 1.1529
 Frc consts  --     15.0688                20.5658                 8.1802
 IR Inten    --      5.2236                 0.0000                 0.0000

                     13
                     SGU
 Frequencies --   3472.3785
 Red. masses --      1.1564
 Frc consts  --      8.2150
 IR Inten    --    187.6166

 - Thermochemistry -
 -------------------
 Temperature   298.150 Kelvin.  Pressure   1.00000 Atm.
 Atom     1 has atomic number  6 and mass  12.00000

 Molecular mass:    50.01565 amu.
 Principal axes and moments of inertia in atomic units:
                           1         2         3
     Eigenvalues --     0.00000 407.26257 407.26257
           X           -0.00000   1.00000  -0.00000
           Y            0.00000   0.00000   1.00000
           Z            1.00000   0.00000  -0.00000
 This molecule is a prolate symmetric top.
 Rotational symmetry number  2.
 Rotational temperature (Kelvin)      0.21267
 Rotational constant (GHZ):           4.431395
 Zero-point vibrational energy      98387.6 (Joules/Mol)
                                   23.51520 (Kcal/Mol)
 Warning -- explicit consideration of   4 degrees of freedom as
           vibrations may cause significant error
 Vibrational temperatures:    342.16   342.16   763.63   763.63   954.63
          (Kelvin)            954.63   962.07   962.07  1318.56  3036.69
                             3277.52  4992.89  4995.98

 Zero-point correction=                           0.037474 (Hartree/Particle)
 Thermal correction to Energy=                    0.041806
 Thermal correction to Enthalpy=                  0.042750
 Thermal correction to Gibbs Free Energy=         0.014718
 Sum of electronic and zero-point Energies=           -153.512259
 Sum of electronic and thermal Energies=              -153.507927
 Sum of electronic and thermal Enthalpies=            -153.506983
 Sum of electronic and thermal Free Energies=         -153.535015

                     E (Thermal)             CV                S
                      KCal/Mol        Cal/Mol-Kelvin    Cal/Mol-Kelvin
 Total                   26.234             14.969             58.998
 Electronic               0.000              0.000              0.000
 Translational            0.889              2.981             37.653
 Rotational               0.592              1.987             15.008
 Vibrational             24.753             10.001              6.337
 Vibration     1          0.656              1.783              1.819
 Vibration     2          0.656              1.783              1.819
 Vibration     3          0.886              1.182              0.586
 Vibration     4          0.886              1.182              0.586

 Optimization completed.
    -- Stationary point found.
 Normal termination of Gaussian 16 at Wed Sep 27 22:28:58 2023.
 Gaussian 16:  ES64L-G16RevB.01 20-Dec-2017

 ---------------------------------
 # rohf/gen geom=check guess=check
 ---------------------------------

 -----------------------------
 diacetylene, ROHF/cc-pVTZ-F12
 -----------------------------
 Structure from the checkpoint file:  "hc4h.chk"
 Charge =  0 Multiplicity = 1

                         Standard orientation:
 ---------------------------------------------------------------------
 Center     Atomic      Atomic             Coordinates (Angstroms)
 Number     Number       Type             X           Y           Z
 ---------------------------------------------------------------------
      1          6           0        0.000000    0.000000    0.681864
      2          6           0        0.000000    0.000000   -0.681864
      3          6           0        0.000000    0.000000    1.886080
      4          6           0        0.000000    0.000000   -1.886080
      5          1           0        0.000000    0.000000    2.947499
      6          1           0        0.000000    0.000000   -2.947499
 ---------------------------------------------------------------------

 SCF Done:  E(ROHF) =  -152.560930507     A.U. after   10 cycles

 The electronic state is 1-SGG.
 Alpha  occ. eigenvalues --  -11.26536 -11.26418 -11.25704 -11.25695  -1.09400
 Alpha  occ. eigenvalues --   -1.02244  -0.85318  -0.73410  -0.70703  -0.49448
 Alpha  occ. eigenvalues --   -0.49448  -0.37111  -0.37111
 Alpha virt. eigenvalues --    0.04151   0.05018   0.06826   0.06826   0.08244
 Alpha virt. eigenvalues --    0.08591   0.08591   0.10086   0.10861   0.10861
 Alpha virt. eigenvalues --    0.15030   0.15030   0.16413   0.16525   0.18074

 Mulliken charges and spin densities:
               1          2
     1  C    0.246750   0.000000
     2  C    0.246750   0.000000
     3  C   -0.511176   0.000000
     4  C   -0.511176   0.000000
     5  H    0.264426   0.000000
     6  H    0.264426   0.000000
 Sum of Mulliken charges =   0.00000   0.00000

 Dipole moment (field-independent basis, Debye):
    X=              0.0000    Y=             -0.0000    Z=             -0.0000  Tot=              0.0000
 Quadrupole moment (field-independent basis, Debye-Ang):
   XX=            -25.2797   YY=            -25.2797   ZZ=            -11.1768
   XY=             -0.0000   XZ=             -0.0000   YZ=              0.0000

 Normal termination of Gaussian 16 at Wed Sep 27 22:29:21 2023.
