 Gaussian 16, Revision B.01,
 Gaussian 16:  ES64L-G16RevB.01 20-Dec-2017

 --------------------
 # b3lyp/gen opt freq
 --------------------

 --------------------------
 diacetylene, B3LYP/pcseg-2
 --------------------------
 Symbolic Z-matrix:
 Charge =  0 Multiplicity = 1

 SCF Done:  E(RB3LYP) =  -153.549707795     A.U. after   12 cycles
 SCF Done:  E(RB3LYP) =  -153.549732968     A.U. after    7 cycles
 SCF Done:  E(RB3LYP) =  -153.549733269     A.U. after    6 cycles
 Optimization completed.
    -- Stationary point found.
 Normal termination of Gaussian 16 at Wed Jun 15 11:45:19 2022.

 ------------------------------------------------------------------
 #N Geom=AllCheck Guess=TCheck SCRF=Check GenChk RB3LYP/ChkBas Freq
 ------------------------------------------------------------------

 Structure from the checkpoint file:  "/wrk/irikura/Gau-16986.chk"
 --------------------------
 diacetylene, B3LYP/pcseg-2
 --------------------------
 Charge =  0 Multiplicity = 1

                         Standard orientation:
 ---------------------------------------------------------------------
 Center     Atomic      Atomic             Coordinates (Angstroms)
 Number     Number       Type             X           Y           Z
 ---------------------------------------------------------------------
      1          6           0        0.000000    0.000000    0.681864
      2          6           0        0.000000    0.000000   -0.681864
      3          6           0        0.000000    0.000000    1.886080
      4          6           0        0.000000    0.000000   -1.886080
      5          1           0        0.000000    0.000000    2.947499
      6          1           0        0.000000    0.000000   -2.947499
 ---------------------------------------------------------------------

 SCF Done:  E(RB3LYP) =  -153.549733269     A.U. after    1 cycles

 The electronic state is 1-SGG.
 Alpha  occ. eigenvalues --  -10.20679 -10.20611 -10.19771 -10.19770  -0.81236
 Alpha  occ. eigenvalues --   -0.75582  -0.64114  -0.54746  -0.52600  -0.36775
 Alpha  occ. eigenvalues --   -0.36775  -0.27494  -0.27494
 Alpha virt. eigenvalues --   -0.04070  -0.04070   0.03345   0.03458   0.08320
 Alpha virt. eigenvalues --    0.10556   0.10556   0.10696   0.15592   0.15592
 Alpha virt. eigenvalues --    0.20472   0.21490   0.23267   0.23267   0.27581

 Mulliken charges:
               1
     1  C    0.036155
     2  C    0.036155
     3  C   -0.103381
     4  C   -0.103381
     5  H    0.067226
     6  H    0.067226
 Sum of Mulliken charges =  -0.00000

 Dipole moment (field-independent basis, Debye):
    X=              0.0000    Y=             -0.0000    Z=             -0.0000  Tot=              0.0000
 Quadrupole moment (field-independent basis, Debye-Ang):
   XX=            -24.8054   YY=            -24.8054   ZZ=            -12.2960
   XY=             -0.0000   XZ=             -0.0000   YZ=              0.0000

  Exact polarizability:  23.032  -0.000  23.032  -0.000   0.000  87.820
 Approx polarizability:  29.908  -0.000  29.908  -0.000  -0.000 177.921

                      1                      2                      3
                     PIU                    PIU                    PIG
 Frequencies --    237.8180               237.8180               530.7474
 Red. masses --      3.7795                 3.7795                 7.7911
 Frc consts  --      0.1259                 0.1259                 1.2931
 IR Inten    --      8.6126                 8.6126                 0.0000

                      4                      5                      6
                     PIG                    PIG                    PIG
 Frequencies --    530.7474               663.5045               663.5045
 Red. masses --      7.7911                 1.2382                 1.2382
 Frc consts  --      1.2931                 0.3212                 0.3212
 IR Inten    --      0.0000                 0.0000                 0.0000

                      7                      8                      9
                     PIU                    PIU                    SGG
 Frequencies --    668.6714               668.6714               916.4441
 Red. masses --      1.2914                 1.2914                 6.9993
 Frc consts  --      0.3402                 0.3402                 3.4635
 IR Inten    --     95.5789                95.5789                 0.0000

                     10                     11                     12
                     SGU                    SGG                    SGG
 Frequencies --   2110.6115              2277.9899              3470.2284
 Red. masses --      5.7413                 6.7265                 1.1529
 Frc consts  --     15.0688                20.5657                 8.1802
 IR Inten    --      5.2274                 0.0000                 0.0000

                     13
                     SGU
 Frequencies --   3472.3766
 Red. masses --      1.1564
 Frc consts  --      8.2150
 IR Inten    --    187.6248

 - Thermochemistry -
 -------------------
 Temperature   298.150 Kelvin.  Pressure   1.00000 Atm.
 Atom     1 has atomic number  6 and mass  12.00000

 Molecular mass:    50.01565 amu.
 Principal axes and moments of inertia in atomic units:
                           1         2         3
     Eigenvalues --     0.00000 407.26253 407.26253
           X           -0.00000   1.00000  -0.00000
           Y            0.00000   0.00000   1.00000
           Z            1.00000   0.00000  -0.00000
 This molecule is a prolate symmetric top.
 Rotational symmetry number  2.
 Rotational temperature (Kelvin)      0.21267
 Rotational constant (GHZ):           4.431395
 Zero-point vibrational energy      98387.7 (Joules/Mol)
                                   23.51522 (Kcal/Mol)
 Warning -- explicit consideration of   4 degrees of freedom as
           vibrations may cause significant error
 Vibrational temperatures:    342.17   342.17   763.63   763.63   954.63
          (Kelvin)            954.63   962.07   962.07  1318.56  3036.70
                             3277.52  4992.88  4995.98

 Zero-point correction=                           0.037474 (Hartree/Particle)
 Thermal correction to Energy=                    0.041806
 Thermal correction to Enthalpy=                  0.042750
 Thermal correction to Gibbs Free Energy=         0.014718
 Sum of electronic and zero-point Energies=           -153.512259
 Sum of electronic and thermal Energies=              -153.507927
 Sum of electronic and thermal Enthalpies=            -153.506983
 Sum of electronic and thermal Free Energies=         -153.535015

                     E (Thermal)             CV                S
                      KCal/Mol        Cal/Mol-Kelvin    Cal/Mol-Kelvin
 Total                   26.234             14.969             58.998
 Electronic               0.000              0.000              0.000
 Translational            0.889              2.981             37.653
 Rotational               0.592              1.987             15.008
 Vibrational             24.753             10.001              6.337
 Vibration     1          0.656              1.783              1.819
 Vibration     2          0.656              1.783              1.819
 Vibration     3          0.886              1.182              0.586
 Vibration     4          0.886              1.182              0.586

 Optimization completed.
    -- Stationary point found.
 Normal termination of Gaussian 16 at Wed Jun 15 11:45:36 2022.
