 Gaussian 16, Revision B.01,
 Gaussian 16:  ES64L-G16RevB.01 20-Dec-2017

 --------------------
 # b3lyp/gen opt freq
 --------------------

 -------------------------
 2-propynal, B3LYP/pcseg-2
 -------------------------
 Symbolic Z-matrix:
 Charge =  0 Multiplicity = 1

 SCF Done:  E(RB3LYP) =  -190.730089125     A.U. after   14 cycles
 SCF Done:  E(RB3LYP) =  -190.730127919     A.U. after    9 cycles
 SCF Done:  E(RB3LYP) =  -190.730108433     A.U. after    9 cycles
 SCF Done:  E(RB3LYP) =  -190.730129124     A.U. after    9 cycles
 Optimization completed.
    -- Stationary point found.
 Normal termination of Gaussian 16 at Fri Jun 17 17:25:37 2022.

 ------------------------------------------------------------------
 #N Geom=AllCheck Guess=TCheck SCRF=Check GenChk RB3LYP/ChkBas Freq
 ------------------------------------------------------------------

 Structure from the checkpoint file:  "/wrk/irikura/Gau-3249.chk"
 -------------------------
 2-propynal, B3LYP/pcseg-2
 -------------------------
 Charge =  0 Multiplicity = 1

                         Standard orientation:
 ---------------------------------------------------------------------
 Center     Atomic      Atomic             Coordinates (Angstroms)
 Number     Number       Type             X           Y           Z
 ---------------------------------------------------------------------
      1          6           0        0.497717   -0.669091   -0.000000
      2          8           0       -0.208798   -1.647193    0.000000
      3          1           0        1.597983   -0.752547   -0.000000
      4          6           0       -0.000000    0.687335    0.000000
      5          6           0       -0.367159    1.830733    0.000000
      6          1           0       -0.710942    2.836232    0.000000
 ---------------------------------------------------------------------

 SCF Done:  E(RB3LYP) =  -190.730129124     A.U. after    1 cycles

 The electronic state is 1-A'.
 Alpha  occ. eigenvalues --  -19.14686 -10.29807 -10.21455 -10.20606  -1.07533
 Alpha  occ. eigenvalues --   -0.80007  -0.68800  -0.56745  -0.52989  -0.47187
 Alpha  occ. eigenvalues --   -0.43070  -0.32343  -0.32211  -0.29349
 Alpha virt. eigenvalues --   -0.09118  -0.00404   0.02281   0.03843   0.06361
 Alpha virt. eigenvalues --    0.09983   0.11051   0.15147   0.17645   0.18610
 Alpha virt. eigenvalues --    0.20324   0.22206   0.24528   0.28365   0.29455

 Mulliken charges:
               1
     1  C    0.245180
     2  O   -0.338127
     3  H    0.024310
     4  C    0.140657
     5  C   -0.148050
     6  H    0.076030
 Sum of Mulliken charges =  -0.00000

 Dipole moment (field-independent basis, Debye):
    X=              1.1562    Y=              2.7908    Z=             -0.0000  Tot=              3.0208
 Quadrupole moment (field-independent basis, Debye-Ang):
   XX=            -22.0612   YY=            -21.6189   ZZ=            -23.0791
   XY=             -3.5897   XZ=              0.0000   YZ=              0.0000

  Exact polarizability:  29.059  -5.058  57.029   0.000   0.000  20.305
 Approx polarizability:  40.971  -7.111  99.831  -0.000   0.000  27.605

                      1                      2                      3
                     A'                     A"                     A'
 Frequencies --    214.6642               274.6588               634.8144
 Red. masses --      4.7516                 3.3748                 9.0678
 Frc consts  --      0.1290                 0.1500                 2.1530
 IR Inten    --      5.8885                10.5053                 9.0921

                      4                      5                      6
                     A'                     A"                     A'
 Frequencies --    686.0291               746.3209               955.8678
 Red. masses --      1.2633                 1.2956                 5.2672
 Frc consts  --      0.3503                 0.4252                 2.8355
 IR Inten    --     47.4232                34.2423               105.0053

                      7                      8                      9
                     A"                     A'                     A'
 Frequencies --   1012.0914              1417.3205              1750.3733
 Red. masses --      1.7545                 1.1789                10.4875
 Frc consts  --      1.0589                 1.3953                18.9315
 IR Inten    --      0.3797                 8.7239               219.8515

                     10                     11                     12
                     A'                     A'                     A'
 Frequencies --   2198.5600              2942.8725              3462.1264
 Red. masses --      5.9428                 1.0829                 1.1608
 Frc consts  --     16.9246                 5.5257                 8.1975
 IR Inten    --     63.1859                67.6824                50.0957

 - Thermochemistry -
 -------------------
 Temperature   298.150 Kelvin.  Pressure   1.00000 Atm.
 Atom     1 has atomic number  6 and mass  12.00000

 Molecular mass:    54.01056 amu.
 Principal axes and moments of inertia in atomic units:
                           1         2         3
     Eigenvalues --    26.23661 372.34482 398.58143
           X           -0.10205   0.99478   0.00000
           Y            0.99478   0.10205   0.00000
           Z            0.00000   0.00000   1.00000
 This molecule is an asymmetric top.
 Rotational symmetry number  1.
 Rotational temperatures (Kelvin)      3.30126     0.23262     0.21731
 Rotational constants (GHZ):          68.78713     4.84696     4.52791
 Zero-point vibrational energy      97469.9 (Joules/Mol)
                                   23.29587 (Kcal/Mol)
 Warning -- explicit consideration of   2 degrees of freedom as
           vibrations may cause significant error
 Vibrational temperatures:    308.85   395.17   913.36   987.04  1073.79
          (Kelvin)           1375.28  1456.17  2039.21  2518.40  3163.24
                             4234.14  4981.23

 Zero-point correction=                           0.037124 (Hartree/Particle)
 Thermal correction to Energy=                    0.041391
 Thermal correction to Enthalpy=                  0.042335
 Thermal correction to Gibbs Free Energy=         0.011201
 Sum of electronic and zero-point Energies=           -190.693005
 Sum of electronic and thermal Energies=              -190.688738
 Sum of electronic and thermal Enthalpies=            -190.687794
 Sum of electronic and thermal Free Energies=         -190.718928

                     E (Thermal)             CV                S
                      KCal/Mol        Cal/Mol-Kelvin    Cal/Mol-Kelvin
 Total                   25.973             12.987             65.527
 Electronic               0.000              0.000              0.000
 Translational            0.889              2.981             37.882
 Rotational               0.889              2.981             22.881
 Vibrational             24.196              7.025              4.765
 Vibration     1          0.645              1.819              2.004
 Vibration     2          0.677              1.720              1.567

 Optimization completed.
    -- Stationary point found.
 Normal termination of Gaussian 16 at Fri Jun 17 17:26:02 2022.
