 Gaussian 16, Revision B.01,

 ---------------------------------------
 # b3lyp/gen opt freq CPHF(Grid=OneStep)
 ---------------------------------------

 ---------------------------------
 propargyl chloride, B3LYP/pcseg-2
 ---------------------------------
 Symbolic Z-matrix:
 Charge =  0 Multiplicity = 1

 SCF Done:  E(RB3LYP) =  -576.334163316     A.U. after   13 cycles
 SCF Done:  E(RB3LYP) =  -576.334155504     A.U. after    8 cycles
 SCF Done:  E(RB3LYP) =  -576.334163316     A.U. after    8 cycles
 SCF Done:  E(RB3LYP) =  -576.334163585     A.U. after    7 cycles
 Optimization completed.
    -- Stationary point found.
 Normal termination of Gaussian 16 at Fri Sep 29 14:53:01 2023.

 ------------------------------------------------------------------
 #N Geom=AllCheck Guess=TCheck SCRF=Check GenChk RB3LYP/ChkBas Freq
 ------------------------------------------------------------------

 Structure from the checkpoint file:  "hccch2cl.chk"
 ---------------------------------
 propargyl chloride, B3LYP/pcseg-2
 ---------------------------------
 Charge =  0 Multiplicity = 1

 SCF Done:  E(RB3LYP) =  -576.334163585     A.U. after    1 cycles

  Exact polarizability:  65.134  -4.739  38.686  -0.000  -0.000  29.738
 Approx polarizability:  97.700 -10.735  59.013   0.000   0.000  42.115

                      1                      2                      3
                     A'                     A"                     A'
 Frequencies --    179.3318               326.4353               454.9158
 Red. masses --      5.2024                 2.8485                 8.1368
 Frc consts  --      0.0986                 0.1788                 0.9921
 IR Inten    --      2.4541                10.9186                 5.0872

                      4                      5                      6
                     A"                     A'                     A'
 Frequencies --    674.7929               698.2557               710.5190
 Red. masses --      1.2540                 4.8025                 1.3982
 Frc consts  --      0.3364                 1.3796                 0.4159
 IR Inten    --     51.1626                22.8128                78.5410

                      7                      8                      9
                     A"                     A'                     A"
 Frequencies --    919.0217               971.2839              1192.9054
 Red. masses --      1.5202                 4.4648                 1.0713
 Frc consts  --      0.7565                 2.4817                 0.8982
 IR Inten    --      0.0085                21.4215                 0.4950

                     10                     11                     12
                     A'                     A'                     A'
 Frequencies --   1284.1982              1473.5458              2226.7795
 Red. masses --      1.1923                 1.1004                 5.9552
 Frc consts  --      1.1585                 1.4078                17.3979
 IR Inten    --     42.2723                 2.7282                 0.9161

                     13                     14                     15
                     A'                     A"                     A'
 Frequencies --   3081.6150              3129.5261              3470.7381
 Red. masses --      1.0561                 1.1090                 1.1614
 Frc consts  --      5.9090                 6.3992                 8.2427
 IR Inten    --      6.6705                 0.0361                65.0185

 - Thermochemistry -
 -------------------
 Temperature   298.150 Kelvin.  Pressure   1.00000 Atm.
 Atom     1 has atomic number  6 and mass  12.00000

 Molecular mass:    73.99233 amu.
 Principal axes and moments of inertia in atomic units:
                           1         2         3
     Eigenvalues --    73.74546 594.46354 656.91011
           X            1.00000   0.00121   0.00000
           Y           -0.00121   1.00000   0.00000
           Z            0.00000  -0.00000   1.00000
 This molecule is an asymmetric top.
 Rotational symmetry number  1.
 Rotational temperatures (Kelvin)      1.17450     0.14570     0.13185
 Rotational constants (GHZ):          24.47257     3.03592     2.74732
 Zero-point vibrational energy     124374.9 (Joules/Mol)
                                   29.72632 (Kcal/Mol)
 Warning -- explicit consideration of   3 degrees of freedom as
           vibrations may cause significant error
 Vibrational temperatures:    258.02   469.67   654.52   970.88  1004.63
          (Kelvin)           1022.28  1322.27  1397.46  1716.32  1847.67
                             2120.10  3203.84  4433.76  4502.69  4993.62

 Zero-point correction=                           0.047372 (Hartree/Particle)
 Thermal correction to Energy=                    0.051917
 Thermal correction to Enthalpy=                  0.052862
 Thermal correction to Gibbs Free Energy=         0.019915
 Sum of electronic and zero-point Energies=           -576.286792
 Sum of electronic and thermal Energies=              -576.282246
 Sum of electronic and thermal Enthalpies=            -576.281302
 Sum of electronic and thermal Free Energies=         -576.314249

                     E (Thermal)             CV                S
                      KCal/Mol        Cal/Mol-Kelvin    Cal/Mol-Kelvin
 Total                   32.579             14.659             69.342
 Electronic               0.000              0.000              0.000
 Translational            0.889              2.981             38.820
 Rotational               0.889              2.981             24.869
 Vibrational             30.801              8.698              5.653
 Vibration     1          0.629              1.868              2.335
 Vibration     2          0.710              1.623              1.278
 Vibration     3          0.813              1.350              0.781

 Optimization completed.
    -- Stationary point found.
 Normal termination of Gaussian 16 at Fri Sep 29 14:55:11 2023.
 Gaussian 16:  ES64L-G16RevB.01 20-Dec-2017

 ---------------------------------
 # rohf/gen geom=check guess=check
 ---------------------------------

 ------------------------------------
 propargyl chloride, ROHF/cc-pVTZ-F12
 ------------------------------------
 Structure from the checkpoint file:  "hccch2cl.chk"
 Charge =  0 Multiplicity = 1

                         Standard orientation:
 ---------------------------------------------------------------------
 Center     Atomic      Atomic             Coordinates (Angstroms)
 Number     Number       Type             X           Y           Z
 ---------------------------------------------------------------------
      1          6           0        2.304607   -0.460351    0.000000
      2          6           0        1.255083    0.117966    0.000000
      3          6           0       -0.000000    0.832866    0.000000
      4          1           0        3.232691   -0.975773    0.000000
      5         17           0       -1.434463   -0.286821    0.000000
      6          1           0       -0.102486    1.454424    0.885924
      7          1           0       -0.102486    1.454424   -0.885924
 ---------------------------------------------------------------------

 SCF Done:  E(ROHF) =  -574.849387161     A.U. after   12 cycles

 The electronic state is 1-A'.
 Alpha  occ. eigenvalues -- -104.83430 -11.32808 -11.25164 -11.24316 -10.55912
 Alpha  occ. eigenvalues --   -8.02603  -8.02445  -8.02441  -1.14915  -1.04833
 Alpha  occ. eigenvalues --   -0.94512  -0.74219  -0.66980  -0.65252  -0.57232
 Alpha  occ. eigenvalues --   -0.45424  -0.45100  -0.40672  -0.40615
 Alpha virt. eigenvalues --    0.04645   0.05271   0.06481   0.06879   0.08028
 Alpha virt. eigenvalues --    0.08099   0.09432   0.11449   0.12338   0.12346
 Alpha virt. eigenvalues --    0.13194   0.13646   0.15263   0.16947   0.18214

 Mulliken charges and spin densities:
               1          2
     1  C   -0.223008  -0.000000
     2  C   -0.050235  -0.000000
     3  C   -0.160532  -0.000000
     4  H    0.237473  -0.000000
     5  Cl  -0.075067  -0.000000
     6  H    0.135685  -0.000000
     7  H    0.135685  -0.000000
 Sum of Mulliken charges =  -0.00000  -0.00000

 Dipole moment (field-independent basis, Debye):
    X=              1.4475    Y=              1.2834    Z=             -0.0000  Tot=              1.9345
 Quadrupole moment (field-independent basis, Debye-Ang):
   XX=            -28.7464   YY=            -28.7925   ZZ=            -31.5409
   XY=             -2.8095   XZ=             -0.0000   YZ=              0.0000

 Normal termination of Gaussian 16 at Fri Sep 29 14:56:14 2023.
