 Gaussian 16, Revision B.01,

 ---------------------------------------
 # b3lyp/gen opt freq CPHF(Grid=OneStep)
 ---------------------------------------

 -------------------------
 2-propynal, B3LYP/pcseg-2
 -------------------------
 Symbolic Z-matrix:
 Charge =  0 Multiplicity = 1

 SCF Done:  E(RB3LYP) =  -190.730129124     A.U. after   14 cycles
 Optimization completed.
    -- Stationary point found.
 Normal termination of Gaussian 16 at Fri Sep 29 16:46:42 2023.

 ------------------------------------------------------------------
 #N Geom=AllCheck Guess=TCheck SCRF=Check GenChk RB3LYP/ChkBas Freq
 ------------------------------------------------------------------

 Structure from the checkpoint file:  "hcccho.chk"
 -------------------------
 2-propynal, B3LYP/pcseg-2
 -------------------------
 Charge =  0 Multiplicity = 1

 SCF Done:  E(RB3LYP) =  -190.730129124     A.U. after    1 cycles

  Exact polarizability:  29.060  -5.058  57.030   0.000  -0.000  20.305
 Approx polarizability:  40.971  -7.111  99.831   0.000  -0.000  27.605

                      1                      2                      3
                     A'                     A"                     A'
 Frequencies --    214.6661               274.6563               634.8161
 Red. masses --      4.7516                 3.3748                 9.0678
 Frc consts  --      0.1290                 0.1500                 2.1530
 IR Inten    --      5.8889                10.5052                 9.0923

                      4                      5                      6
                     A'                     A"                     A'
 Frequencies --    686.0317               746.3232               955.8666
 Red. masses --      1.2633                 1.2956                 5.2672
 Frc consts  --      0.3503                 0.4252                 2.8355
 IR Inten    --     47.4228                34.2422               105.0060

                      7                      8                      9
                     A"                     A'                     A'
 Frequencies --   1012.0908              1417.3187              1750.3802
 Red. masses --      1.7545                 1.1789                10.4875
 Frc consts  --      1.0589                 1.3953                18.9315
 IR Inten    --      0.3798                 8.7242               219.8497

                     10                     11                     12
                     A'                     A'                     A'
 Frequencies --   2198.5579              2942.8650              3462.1229
 Red. masses --      5.9428                 1.0829                 1.1608
 Frc consts  --     16.9245                 5.5256                 8.1975
 IR Inten    --     63.1860                67.6853                50.0958

 - Thermochemistry -
 -------------------
 Temperature   298.150 Kelvin.  Pressure   1.00000 Atm.
 Atom     1 has atomic number  6 and mass  12.00000

 Molecular mass:    54.01056 amu.
 Principal axes and moments of inertia in atomic units:
                           1         2         3
     Eigenvalues --    26.23659 372.34483 398.58142
           X           -0.10205   0.99478   0.00000
           Y            0.99478   0.10205   0.00000
           Z            0.00000   0.00000   1.00000
 This molecule is an asymmetric top.
 Rotational symmetry number  1.
 Rotational temperatures (Kelvin)      3.30126     0.23262     0.21731
 Rotational constants (GHZ):          68.78719     4.84696     4.52791
 Zero-point vibrational energy      97469.9 (Joules/Mol)
                                   23.29587 (Kcal/Mol)
 Warning -- explicit consideration of   2 degrees of freedom as
           vibrations may cause significant error
 Vibrational temperatures:    308.86   395.17   913.36   987.05  1073.79
          (Kelvin)           1375.28  1456.17  2039.21  2518.41  3163.23
                             4234.13  4981.22

 Zero-point correction=                           0.037124 (Hartree/Particle)
 Thermal correction to Energy=                    0.041391
 Thermal correction to Enthalpy=                  0.042335
 Thermal correction to Gibbs Free Energy=         0.011201
 Sum of electronic and zero-point Energies=           -190.693005
 Sum of electronic and thermal Energies=              -190.688738
 Sum of electronic and thermal Enthalpies=            -190.687794
 Sum of electronic and thermal Free Energies=         -190.718928

                     E (Thermal)             CV                S
                      KCal/Mol        Cal/Mol-Kelvin    Cal/Mol-Kelvin
 Total                   25.973             12.987             65.527
 Electronic               0.000              0.000              0.000
 Translational            0.889              2.981             37.882
 Rotational               0.889              2.981             22.881
 Vibrational             24.196              7.025              4.765
 Vibration     1          0.645              1.819              2.004
 Vibration     2          0.677              1.720              1.567

 Optimization completed.
    -- Stationary point found.
 Normal termination of Gaussian 16 at Fri Sep 29 16:47:58 2023.
 Gaussian 16:  ES64L-G16RevB.01 20-Dec-2017

 ---------------------------------
 # rohf/gen geom=check guess=check
 ---------------------------------

 ----------------------------
 2-propynal, ROHF/cc-pVTZ-F12
 ----------------------------
 Structure from the checkpoint file:  "hcccho.chk"
 Charge =  0 Multiplicity = 1

                         Standard orientation:
 ---------------------------------------------------------------------
 Center     Atomic      Atomic             Coordinates (Angstroms)
 Number     Number       Type             X           Y           Z
 ---------------------------------------------------------------------
      1          6           0        0.497717   -0.669091    0.000000
      2          8           0       -0.208799   -1.647193    0.000000
      3          1           0        1.597983   -0.752548    0.000000
      4          6           0       -0.000000    0.687335   -0.000000
      5          6           0       -0.367159    1.830733   -0.000000
      6          1           0       -0.710941    2.836232   -0.000000
 ---------------------------------------------------------------------

 SCF Done:  E(ROHF) =  -189.623725494     A.U. after   12 cycles

 The electronic state is 1-A'.
 Alpha  occ. eigenvalues --  -20.58054 -11.36831 -11.27318 -11.26166  -1.41707
 Alpha  occ. eigenvalues --   -1.07484  -0.92037  -0.76119  -0.71780  -0.66927
 Alpha  occ. eigenvalues --   -0.56585  -0.46633  -0.43448  -0.42836
 Alpha virt. eigenvalues --    0.04064   0.05256   0.05570   0.06829   0.07290
 Alpha virt. eigenvalues --    0.07981   0.08808   0.10724   0.12162   0.13270
 Alpha virt. eigenvalues --    0.13856   0.17154   0.17539   0.18118   0.19801

 Mulliken charges and spin densities:
               1          2
     1  C    0.357906   0.000000
     2  O   -0.493574   0.000000
     3  H    0.138717   0.000000
     4  C   -0.018792   0.000000
     5  C   -0.231583   0.000000
     6  H    0.247325   0.000000
 Sum of Mulliken charges =  -0.00000   0.00000

 Dipole moment (field-independent basis, Debye):
    X=              1.4011    Y=              2.9677    Z=              0.0000  Tot=              3.2818
 Quadrupole moment (field-independent basis, Debye-Ang):
   XX=            -21.7848   YY=            -21.6738   ZZ=            -23.3606
   XY=             -4.0233   XZ=             -0.0000   YZ=             -0.0000

 Normal termination of Gaussian 16 at Fri Sep 29 16:48:50 2023.
