 Gaussian 16, Revision B.01,
 Gaussian 16:  ES64L-G16RevB.01 20-Dec-2017

 --------------------
 # b3lyp/gen opt freq
 --------------------

 ------------------------------
 chloroacetylene, B3LYP/pcseg-2
 ------------------------------
 Symbolic Z-matrix:
 Charge =  0 Multiplicity = 1

 SCF Done:  E(RB3LYP) =  -536.992898417     A.U. after   12 cycles
 SCF Done:  E(RB3LYP) =  -536.992919304     A.U. after    8 cycles
 Optimization completed.
    -- Stationary point found.
 Normal termination of Gaussian 16 at Thu Jun 16 10:04:27 2022.

 ------------------------------------------------------------------
 #N Geom=AllCheck Guess=TCheck SCRF=Check GenChk RB3LYP/ChkBas Freq
 ------------------------------------------------------------------

 Structure from the checkpoint file:  "/wrk/irikura/Gau-30852.chk"
 ------------------------------
 chloroacetylene, B3LYP/pcseg-2
 ------------------------------
 Charge =  0 Multiplicity = 1

                         Standard orientation:
 ---------------------------------------------------------------------
 Center     Atomic      Atomic             Coordinates (Angstroms)
 Number     Number       Type             X           Y           Z
 ---------------------------------------------------------------------
      1          6           0        0.000000    0.000000   -1.811530
      2          6           0        0.000000    0.000000   -0.613966
      3         17           0        0.000000    0.000000    1.025032
      4          1           0        0.000000    0.000000   -2.872564
 ---------------------------------------------------------------------

 SCF Done:  E(RB3LYP) =  -536.992919304     A.U. after    1 cycles

 The electronic state is 1-SG.
 Alpha  occ. eigenvalues -- -101.56458 -10.23260 -10.18746  -9.50829  -7.27056
 Alpha  occ. eigenvalues --   -7.26083  -7.26083  -0.91595  -0.75682  -0.56306
 Alpha  occ. eigenvalues --   -0.51134  -0.40570  -0.40570  -0.28562  -0.28562
 Alpha virt. eigenvalues --    0.01343   0.01888   0.01888   0.04191   0.07531
 Alpha virt. eigenvalues --    0.16006   0.17209   0.17209   0.24413   0.25610
 Alpha virt. eigenvalues --    0.25610   0.30816   0.35768   0.35768   0.44073

 Mulliken charges:
               1
     1  C   -0.059727
     2  C   -0.004842
     3  Cl  -0.014096
     4  H    0.078665
 Sum of Mulliken charges =  -0.00000

 Dipole moment (field-independent basis, Debye):
    X=              0.0000    Y=              0.0000    Z=             -0.3387  Tot=              0.3387
 Quadrupole moment (field-independent basis, Debye-Ang):
   XX=            -25.0087   YY=            -25.0087   ZZ=            -18.1504
   XY=              0.0000   XZ=              0.0000   YZ=              0.0000

  Exact polarizability:  19.681   0.000  19.681   0.000  -0.000  54.521
 Approx polarizability:  26.869  -0.000  26.869  -0.000  -0.000  94.830

                      1                      2                      3
                     PI                     PI                     PI
 Frequencies --    350.2608               350.2608               648.0797
 Red. masses --      6.5388                 6.5388                 1.2264
 Frc consts  --      0.4726                 0.4726                 0.3035
 IR Inten    --      5.0868                 5.0868                50.4392

                      4                      5                      6
                     PI                     SG                     SG
 Frequencies --    648.0797               753.3292              2199.0294
 Red. masses --      1.2264                11.0228                 5.9896
 Frc consts  --      0.3035                 3.6856                17.0651
 IR Inten    --     50.4392                10.9632                51.4584

                      7
                     SG
 Frequencies --   3476.1437
 Red. masses --      1.1586
 Frc consts  --      8.2484
 IR Inten    --     97.9185

 - Thermochemistry -
 -------------------
 Temperature   298.150 Kelvin.  Pressure   1.00000 Atm.
 Atom     1 has atomic number  6 and mass  12.00000

 Molecular mass:    59.97668 amu.
 Principal axes and moments of inertia in atomic units:
                           1         2         3
     Eigenvalues --     0.00000 316.80513 316.80513
           X            0.00000  -0.00000   1.00000
           Y            0.00000   1.00000   0.00000
           Z            1.00000   0.00000   0.00000
 This molecule is a prolate symmetric top.
 Rotational symmetry number  1.
 Rotational temperature (Kelvin)      0.27340
 Rotational constant (GHZ):           5.696692
 Zero-point vibrational energy      50393.8 (Joules/Mol)
                                   12.04440 (Kcal/Mol)
 Warning -- explicit consideration of   2 degrees of freedom as
           vibrations may cause significant error
 Vibrational temperatures:    503.95   503.95   932.44   932.44  1083.87
          (Kelvin)           3163.91  5001.40

 Zero-point correction=                           0.019194 (Hartree/Particle)
 Thermal correction to Energy=                    0.022640
 Thermal correction to Enthalpy=                  0.023585
 Thermal correction to Gibbs Free Energy=        -0.003692
 Sum of electronic and zero-point Energies=           -536.973725
 Sum of electronic and thermal Energies=              -536.970279
 Sum of electronic and thermal Enthalpies=            -536.969335
 Sum of electronic and thermal Free Energies=         -536.996611

                     E (Thermal)             CV                S
                      KCal/Mol        Cal/Mol-Kelvin    Cal/Mol-Kelvin
 Total                   14.207             10.717             57.408
 Electronic               0.000              0.000              0.000
 Translational            0.889              2.981             38.194
 Rotational               0.592              1.987             15.887
 Vibrational             12.726              5.749              3.327
 Vibration     1          0.727              1.575              1.165
 Vibration     2          0.727              1.575              1.165

 Optimization completed.
    -- Stationary point found.
 Normal termination of Gaussian 16 at Thu Jun 16 10:04:37 2022.
