 Gaussian 16, Revision B.01,

 ---------------------------------------
 # b3lyp/gen opt freq CPHF(Grid=OneStep)
 ---------------------------------------

 ------------------------------
 chloroacetylene, B3LYP/pcseg-2
 ------------------------------
 Symbolic Z-matrix:
 Charge =  0 Multiplicity = 1

 SCF Done:  E(RB3LYP) =  -536.992919304     A.U. after   12 cycles
 Optimization completed.
    -- Stationary point found.
 Normal termination of Gaussian 16 at Sat Sep 30 01:12:53 2023.

 ------------------------------------------------------------------
 #N Geom=AllCheck Guess=TCheck SCRF=Check GenChk RB3LYP/ChkBas Freq
 ------------------------------------------------------------------

 Structure from the checkpoint file:  "hcccl.chk"
 ------------------------------
 chloroacetylene, B3LYP/pcseg-2
 ------------------------------
 Charge =  0 Multiplicity = 1

 SCF Done:  E(RB3LYP) =  -536.992919304     A.U. after    1 cycles

  Exact polarizability:  19.682   0.000  19.682   0.000   0.000  54.521
 Approx polarizability:  26.869  -0.000  26.869  -0.000  -0.000  94.831

                      1                      2                      3
                     PI                     PI                     PI
 Frequencies --    350.2481               350.2481               648.0780
 Red. masses --      6.5387                 6.5387                 1.2264
 Frc consts  --      0.4726                 0.4726                 0.3035
 IR Inten    --      5.0867                 5.0867                50.4386

                      4                      5                      6
                     PI                     SG                     SG
 Frequencies --    648.0780               753.3344              2199.0185
 Red. masses --      1.2264                11.0228                 5.9896
 Frc consts  --      0.3035                 3.6857                17.0651
 IR Inten    --     50.4386                10.9627                51.4469

                      7
                     SG
 Frequencies --   3476.1440
 Red. masses --      1.1586
 Frc consts  --      8.2484
 IR Inten    --     97.9139

 - Thermochemistry -
 -------------------
 Temperature   298.150 Kelvin.  Pressure   1.00000 Atm.
 Atom     1 has atomic number  6 and mass  12.00000

 Molecular mass:    59.97668 amu.
 Principal axes and moments of inertia in atomic units:
                           1         2         3
     Eigenvalues --     0.00000 316.80528 316.80528
           X            0.00000  -0.00000   1.00000
           Y            0.00000   1.00000   0.00000
           Z            1.00000   0.00000   0.00000
 This molecule is a prolate symmetric top.
 Rotational symmetry number  1.
 Rotational temperature (Kelvin)      0.27340
 Rotational constant (GHZ):           5.696689
 Zero-point vibrational energy      50393.6 (Joules/Mol)
                                   12.04436 (Kcal/Mol)
 Warning -- explicit consideration of   2 degrees of freedom as
           vibrations may cause significant error
 Vibrational temperatures:    503.93   503.93   932.44   932.44  1083.88
          (Kelvin)           3163.90  5001.40

 Zero-point correction=                           0.019194 (Hartree/Particle)
 Thermal correction to Energy=                    0.022640
 Thermal correction to Enthalpy=                  0.023585
 Thermal correction to Gibbs Free Energy=        -0.003692
 Sum of electronic and zero-point Energies=           -536.973725
 Sum of electronic and thermal Energies=              -536.970279
 Sum of electronic and thermal Enthalpies=            -536.969335
 Sum of electronic and thermal Free Energies=         -536.996611

                     E (Thermal)             CV                S
                      KCal/Mol        Cal/Mol-Kelvin    Cal/Mol-Kelvin
 Total                   14.207             10.717             57.408
 Electronic               0.000              0.000              0.000
 Translational            0.889              2.981             38.194
 Rotational               0.592              1.987             15.887
 Vibrational             12.726              5.749              3.327
 Vibration     1          0.727              1.575              1.165
 Vibration     2          0.727              1.575              1.165

 Optimization completed.
    -- Stationary point found.
 Normal termination of Gaussian 16 at Sat Sep 30 01:13:17 2023.
 Gaussian 16:  ES64L-G16RevB.01 20-Dec-2017

 ---------------------------------
 # rohf/gen geom=check guess=check
 ---------------------------------

 ---------------------------------
 chloroacetylene, ROHF/cc-pVTZ-F12
 ---------------------------------
 Structure from the checkpoint file:  "hcccl.chk"
 Charge =  0 Multiplicity = 1

                         Standard orientation:
 ---------------------------------------------------------------------
 Center     Atomic      Atomic             Coordinates (Angstroms)
 Number     Number       Type             X           Y           Z
 ---------------------------------------------------------------------
      1          6           0        0.000000    0.000000   -1.811530
      2          6           0        0.000000    0.000000   -0.613966
      3         17           0        0.000000    0.000000    1.025032
      4          1           0        0.000000    0.000000   -2.872564
 ---------------------------------------------------------------------

 SCF Done:  E(ROHF) =  -535.785016825     A.U. after   11 cycles

 The electronic state is 1-SG.
 Alpha  occ. eigenvalues -- -104.88941 -11.29499 -11.24840 -10.61332  -8.08070
 Alpha  occ. eigenvalues --   -8.07857  -8.07857  -1.19285  -1.02443  -0.74823
 Alpha  occ. eigenvalues --   -0.67167  -0.55100  -0.55100  -0.39611  -0.39611
 Alpha virt. eigenvalues --    0.04735   0.05476   0.07925   0.07925   0.09965
 Alpha virt. eigenvalues --    0.10656   0.10656   0.13099   0.13696   0.13696
 Alpha virt. eigenvalues --    0.18390   0.19486   0.19486   0.20799   0.24630

 Mulliken charges and spin densities:
               1          2
     1  C   -0.220755   0.000000
     2  C   -0.180646   0.000000
     3  Cl   0.150347   0.000000
     4  H    0.251054   0.000000
 Sum of Mulliken charges =  -0.00000   0.00000

 Dipole moment (field-independent basis, Debye):
    X=              0.0000    Y=              0.0000    Z=             -0.5989  Tot=              0.5989
 Quadrupole moment (field-independent basis, Debye-Ang):
   XX=            -25.2534   YY=            -25.2534   ZZ=            -17.6322
   XY=              0.0000   XZ=              0.0000   YZ=              0.0000

 Normal termination of Gaussian 16 at Sat Sep 30 01:13:26 2023.
