 Gaussian 16, Revision B.01,
 Gaussian 16:  ES64L-G16RevB.01 20-Dec-2017

 --------------------
 # b3lyp/gen opt freq
 --------------------

 -----------------------------
 cyanoacetylene, B3LYP/pcseg-2
 -----------------------------
 Symbolic Z-matrix:
 Charge =  0 Multiplicity = 1

 SCF Done:  E(RB3LYP) =  -169.642584059     A.U. after   13 cycles
 SCF Done:  E(RB3LYP) =  -169.642670715     A.U. after    9 cycles
 SCF Done:  E(RB3LYP) =  -169.642671727     A.U. after    8 cycles
 Optimization completed.
    -- Stationary point found.
 Normal termination of Gaussian 16 at Wed Jun 15 11:31:31 2022.

 ------------------------------------------------------------------
 #N Geom=AllCheck Guess=TCheck SCRF=Check GenChk RB3LYP/ChkBas Freq
 ------------------------------------------------------------------

 Structure from the checkpoint file:  "/wrk/irikura/Gau-11002.chk"
 -----------------------------
 cyanoacetylene, B3LYP/pcseg-2
 -----------------------------
 Charge =  0 Multiplicity = 1

                         Standard orientation:
 ---------------------------------------------------------------------
 Center     Atomic      Atomic             Coordinates (Angstroms)
 Number     Number       Type             X           Y           Z
 ---------------------------------------------------------------------
      1          7           0        0.000000    0.000000    1.892288
      2          6           0        0.000000    0.000000    0.737460
      3          6           0        0.000000    0.000000   -0.631026
      4          6           0        0.000000    0.000000   -1.831716
      5          1           0        0.000000    0.000000   -2.894328
 ---------------------------------------------------------------------

 SCF Done:  E(RB3LYP) =  -169.642671727     A.U. after    1 cycles

 The electronic state is 1-SG.
 Alpha  occ. eigenvalues --  -14.34827 -10.24737 -10.24003 -10.23612  -0.94094
 Alpha  occ. eigenvalues --   -0.82194  -0.69212  -0.57044  -0.41518  -0.41518
 Alpha  occ. eigenvalues --   -0.39752  -0.32401  -0.32401
 Alpha virt. eigenvalues --   -0.06918  -0.06918   0.01723   0.06102   0.10028
 Alpha virt. eigenvalues --    0.10294   0.10294   0.15617   0.15617   0.17364
 Alpha virt. eigenvalues --    0.21180   0.21912   0.21912   0.26558   0.29731

 Mulliken charges:
               1
     1  N   -0.147447
     2  C    0.134663
     3  C    0.014520
     4  C   -0.097637
     5  H    0.095900
 Sum of Mulliken charges =  -0.00000

 Dipole moment (field-independent basis, Debye):
    X=              0.0000    Y=              0.0000    Z=             -3.8967  Tot=              3.8967
 Quadrupole moment (field-independent basis, Debye-Ang):
   XX=            -22.8501   YY=            -22.8501   ZZ=            -21.3389
   XY=              0.0000   XZ=              0.0000   YZ=              0.0000

  Exact polarizability:  20.059  -0.000  20.059   0.000  -0.000  69.941
 Approx polarizability:  26.668  -0.000  26.668  -0.000  -0.000 143.552

                      1                      2                      3
                     PI                     PI                     PI
 Frequencies --    240.9516               240.9516               547.2555
 Red. masses --      5.5266                 5.5266                10.4598
 Frc consts  --      0.1890                 0.1890                 1.8457
 IR Inten    --      0.1280                 0.1280                 7.3758

                      4                      5                      6
                     PI                     PI                     PI
 Frequencies --    547.2555               706.5795               706.5795
 Red. masses --     10.4598                 1.2685                 1.2685
 Frc consts  --      1.8457                 0.3731                 0.3731
 IR Inten    --      7.3758                42.2107                42.2107

                      7                      8                      9
                     SG                     SG                     SG
 Frequencies --    903.4774              2173.0980              2366.5790
 Red. masses --      9.1516                 6.7089                10.5005
 Frc consts  --      4.4013                18.6663                34.6499
 IR Inten    --      0.0006                 0.1211                24.7037

                     10
                     SG
 Frequencies --   3463.7233
 Red. masses --      1.1600
 Frc consts  --      8.1996
 IR Inten    --     85.6930

 - Thermochemistry -
 -------------------
 Temperature   298.150 Kelvin.  Pressure   1.00000 Atm.
 Atom     1 has atomic number  7 and mass  14.00307

 Molecular mass:    51.01090 amu.
 Principal axes and moments of inertia in atomic units:
                           1         2         3
     Eigenvalues --     0.00000 392.77665 392.77665
           X            0.00000  -0.00000   1.00000
           Y            0.00000   1.00000   0.00000
           Z            1.00000   0.00000   0.00000
 This molecule is a prolate symmetric top.
 Rotational symmetry number  1.
 Rotational temperature (Kelvin)      0.22052
 Rotational constant (GHZ):           4.594828
 Zero-point vibrational energy      71156.6 (Joules/Mol)
                                   17.00683 (Kcal/Mol)
 Warning -- explicit consideration of   4 degrees of freedom as
           vibrations may cause significant error
 Vibrational temperatures:    346.68   346.68   787.38   787.38  1016.61
          (Kelvin)           1016.61  1299.90  3126.60  3404.98  4983.53

 Zero-point correction=                           0.027102 (Hartree/Particle)
 Thermal correction to Energy=                    0.031118
 Thermal correction to Enthalpy=                  0.032062
 Thermal correction to Gibbs Free Energy=         0.003814
 Sum of electronic and zero-point Energies=           -169.615570
 Sum of electronic and thermal Energies=              -169.611554
 Sum of electronic and thermal Enthalpies=            -169.610610
 Sum of electronic and thermal Free Energies=         -169.638857

                     E (Thermal)             CV                S
                      KCal/Mol        Cal/Mol-Kelvin    Cal/Mol-Kelvin
 Total                   19.527             12.952             59.452
 Electronic               0.000              0.000              0.000
 Translational            0.889              2.981             37.712
 Rotational               0.592              1.987             16.314
 Vibrational             18.046              7.984              5.427
 Vibration     1          0.658              1.778              1.796
 Vibration     2          0.658              1.778              1.796
 Vibration     3          0.902              1.146              0.550
 Vibration     4          0.902              1.146              0.550

 Optimization completed.
    -- Stationary point found.
 Normal termination of Gaussian 16 at Wed Jun 15 11:31:47 2022.
