 Gaussian 16, Revision B.01,
 Gaussian 16:  ES64L-G16RevB.01 20-Dec-2017

 --------------------
 # b3lyp/gen opt freq
 --------------------

 ------------------------------
 fluoroacetylene, B3LYP/pcseg-2
 ------------------------------
 Symbolic Z-matrix:
 Charge =  0 Multiplicity = 1

 SCF Done:  E(RB3LYP) =  -176.621348663     A.U. after   12 cycles
 SCF Done:  E(RB3LYP) =  -176.621392546     A.U. after    8 cycles
 SCF Done:  E(RB3LYP) =  -176.621395170     A.U. after    8 cycles
 Optimization completed.
    -- Stationary point found.
 Normal termination of Gaussian 16 at Wed Jun 15 16:48:17 2022.

 ------------------------------------------------------------------
 #N Geom=AllCheck Guess=TCheck SCRF=Check GenChk RB3LYP/ChkBas Freq
 ------------------------------------------------------------------

 Structure from the checkpoint file:  "/wrk/irikura/Gau-2651.chk"
 ------------------------------
 fluoroacetylene, B3LYP/pcseg-2
 ------------------------------
 Charge =  0 Multiplicity = 1

                         Standard orientation:
 ---------------------------------------------------------------------
 Center     Atomic      Atomic             Coordinates (Angstroms)
 Number     Number       Type             X           Y           Z
 ---------------------------------------------------------------------
      1          6           0        0.000000    0.000000   -0.095345
      2          6           0        0.000000    0.000000   -1.286794
      3          9           0        0.000000    0.000000    1.182190
      4          1           0        0.000000    0.000000   -2.346873
 ---------------------------------------------------------------------

 SCF Done:  E(RB3LYP) =  -176.621395170     A.U. after    1 cycles

 The electronic state is 1-SG.
 Alpha  occ. eigenvalues --  -24.76446 -10.27316 -10.18739  -1.30871  -0.77778
 Alpha  occ. eigenvalues --   -0.64518  -0.53917  -0.53192  -0.53192  -0.29884
 Alpha  occ. eigenvalues --   -0.29884
 Alpha virt. eigenvalues --    0.01322   0.04228   0.04228   0.05514   0.14063
 Alpha virt. eigenvalues --    0.16212   0.16212   0.17673   0.25133   0.25133
 Alpha virt. eigenvalues --    0.32201   0.33583   0.45796   0.53814   0.53814

 Mulliken charges:
               1
     1  C    0.317382
     2  C   -0.202058
     3  F   -0.194590
     4  H    0.079266
 Sum of Mulliken charges =  -0.00000

 Dipole moment (field-independent basis, Debye):
    X=              0.0000    Y=              0.0000    Z=             -0.6326  Tot=              0.6326
 Quadrupole moment (field-independent basis, Debye-Ang):
   XX=            -17.1357   YY=            -17.1357   ZZ=            -13.1739
   XY=              0.0000   XZ=              0.0000   YZ=              0.0000

  Exact polarizability:  14.139  -0.000  14.139  -0.000   0.000  32.732
 Approx polarizability:  17.608  -0.000  17.608  -0.000  -0.000  57.822

                      1                      2                      3
                     PI                     PI                     PI
 Frequencies --    407.5474               407.5474               620.6655
 Red. masses --     11.6325                11.6325                 1.1616
 Frc consts  --      1.1384                 1.1384                 0.2636
 IR Inten    --      1.0390                 1.0390                56.5519

                      4                      5                      6
                     PI                     SG                     SG
 Frequencies --    620.6655              1081.3891              2319.4543
 Red. masses --      1.1616                10.0423                 6.1308
 Frc consts  --      0.2636                 6.9191                19.4329
 IR Inten    --     56.5519                85.7343               142.6929

                      7
                     SG
 Frequencies --   3487.8536
 Red. masses --      1.1656
 Frc consts  --      8.3542
 IR Inten    --     98.7588

 - Thermochemistry -
 -------------------
 Temperature   298.150 Kelvin.  Pressure   1.00000 Atm.
 Atom     1 has atomic number  6 and mass  12.00000

 Molecular mass:    44.00623 amu.
 Principal axes and moments of inertia in atomic units:
                           1         2         3
     Eigenvalues --     0.00000 184.98810 184.98810
           X            0.00000  -0.00000   1.00000
           Y            0.00000   1.00000   0.00000
           Z            1.00000   0.00000   0.00000
 This molecule is a prolate symmetric top.
 Rotational symmetry number  1.
 Rotational temperature (Kelvin)      0.46821
 Rotational constant (GHZ):           9.755985
 Zero-point vibrational energy      53503.7 (Joules/Mol)
                                   12.78770 (Kcal/Mol)
 Warning -- explicit consideration of   4 degrees of freedom as
           vibrations may cause significant error
 Vibrational temperatures:    586.37   586.37   893.00   893.00  1555.88
          (Kelvin)           3337.18  5018.24

 Zero-point correction=                           0.020378 (Hartree/Particle)
 Thermal correction to Energy=                    0.023668
 Thermal correction to Enthalpy=                  0.024612
 Thermal correction to Gibbs Free Energy=        -0.001453
 Sum of electronic and zero-point Energies=           -176.601017
 Sum of electronic and thermal Energies=              -176.597727
 Sum of electronic and thermal Enthalpies=            -176.596783
 Sum of electronic and thermal Free Energies=         -176.622848

                     E (Thermal)             CV                S
                      KCal/Mol        Cal/Mol-Kelvin    Cal/Mol-Kelvin
 Total                   14.852             10.152             54.858
 Electronic               0.000              0.000              0.000
 Translational            0.889              2.981             37.271
 Rotational               0.592              1.987             14.817
 Vibrational             13.371              5.184              2.769
 Vibration     1          0.772              1.454              0.935
 Vibration     2          0.772              1.454              0.935
 Vibration     3          0.981              0.988              0.415
 Vibration     4          0.981              0.988              0.415

 Optimization completed.
    -- Stationary point found.
 Normal termination of Gaussian 16 at Wed Jun 15 16:48:26 2022.
