 Gaussian 16, Revision B.01,

 ---------------------------------------
 # b3lyp/gen opt freq CPHF(Grid=OneStep)
 ---------------------------------------

 ------------------------------
 fluoroacetylene, B3LYP/pcseg-2
 ------------------------------
 Symbolic Z-matrix:
 Charge =  0 Multiplicity = 1

 SCF Done:  E(RB3LYP) =  -176.621395170     A.U. after   12 cycles
 Optimization completed.
    -- Stationary point found.
 Normal termination of Gaussian 16 at Sat Sep 30 08:56:03 2023.

 ------------------------------------------------------------------
 #N Geom=AllCheck Guess=TCheck SCRF=Check GenChk RB3LYP/ChkBas Freq
 ------------------------------------------------------------------

 Structure from the checkpoint file:  "hccf.chk"
 ------------------------------
 fluoroacetylene, B3LYP/pcseg-2
 ------------------------------
 Charge =  0 Multiplicity = 1

 SCF Done:  E(RB3LYP) =  -176.621395170     A.U. after    1 cycles

  Exact polarizability:  14.139   0.000  14.139   0.000   0.000  32.731
 Approx polarizability:  17.608  -0.000  17.608  -0.000  -0.000  57.822

                      1                      2                      3
                     PI                     PI                     PI
 Frequencies --    407.5446               407.5446               620.6651
 Red. masses --     11.6325                11.6325                 1.1616
 Frc consts  --      1.1383                 1.1383                 0.2636
 IR Inten    --      1.0388                 1.0388                56.5513

                      4                      5                      6
                     PI                     SG                     SG
 Frequencies --    620.6651              1081.3919              2319.4534
 Red. masses --      1.1616                10.0423                 6.1308
 Frc consts  --      0.2636                 6.9191                19.4329
 IR Inten    --     56.5513                85.7322               142.6858

                      7
                     SG
 Frequencies --   3487.8538
 Red. masses --      1.1656
 Frc consts  --      8.3542
 IR Inten    --     98.7576

 - Thermochemistry -
 -------------------
 Temperature   298.150 Kelvin.  Pressure   1.00000 Atm.
 Atom     1 has atomic number  6 and mass  12.00000

 Molecular mass:    44.00623 amu.
 Principal axes and moments of inertia in atomic units:
                           1         2         3
     Eigenvalues --     0.00000 184.98812 184.98812
           X            0.00000  -0.00000   1.00000
           Y            0.00000   1.00000   0.00000
           Z            1.00000   0.00000   0.00000
 This molecule is a prolate symmetric top.
 Rotational symmetry number  1.
 Rotational temperature (Kelvin)      0.46821
 Rotational constant (GHZ):           9.755984
 Zero-point vibrational energy      53503.7 (Joules/Mol)
                                   12.78769 (Kcal/Mol)
 Warning -- explicit consideration of   4 degrees of freedom as
           vibrations may cause significant error
 Vibrational temperatures:    586.37   586.37   893.00   893.00  1555.88
          (Kelvin)           3337.18  5018.24

 Zero-point correction=                           0.020378 (Hartree/Particle)
 Thermal correction to Energy=                    0.023668
 Thermal correction to Enthalpy=                  0.024612
 Thermal correction to Gibbs Free Energy=        -0.001453
 Sum of electronic and zero-point Energies=           -176.601017
 Sum of electronic and thermal Energies=              -176.597727
 Sum of electronic and thermal Enthalpies=            -176.596783
 Sum of electronic and thermal Free Energies=         -176.622848

                     E (Thermal)             CV                S
                      KCal/Mol        Cal/Mol-Kelvin    Cal/Mol-Kelvin
 Total                   14.852             10.152             54.858
 Electronic               0.000              0.000              0.000
 Translational            0.889              2.981             37.271
 Rotational               0.592              1.987             14.817
 Vibrational             13.371              5.184              2.769
 Vibration     1          0.772              1.454              0.935
 Vibration     2          0.772              1.454              0.935
 Vibration     3          0.981              0.988              0.415
 Vibration     4          0.981              0.988              0.415

 Optimization completed.
    -- Stationary point found.
 Normal termination of Gaussian 16 at Sat Sep 30 08:56:24 2023.
 Gaussian 16:  ES64L-G16RevB.01 20-Dec-2017

 ---------------------------------
 # rohf/gen geom=check guess=check
 ---------------------------------

 ---------------------------------
 fluoroacetylene, ROHF/cc-pVTZ-F12
 ---------------------------------
 Structure from the checkpoint file:  "hccf.chk"
 Charge =  0 Multiplicity = 1

                         Standard orientation:
 ---------------------------------------------------------------------
 Center     Atomic      Atomic             Coordinates (Angstroms)
 Number     Number       Type             X           Y           Z
 ---------------------------------------------------------------------
      1          6           0        0.000000    0.000000   -0.095345
      2          6           0        0.000000    0.000000   -1.286794
      3          9           0        0.000000    0.000000    1.182190
      4          1           0        0.000000    0.000000   -2.346873
 ---------------------------------------------------------------------

 SCF Done:  E(ROHF) =  -175.726548834     A.U. after   10 cycles

 The electronic state is 1-SG.
 Alpha  occ. eigenvalues --  -26.38258 -11.33823 -11.24594  -1.70570  -1.05348
 Alpha  occ. eigenvalues --   -0.86106  -0.76045  -0.76045  -0.72414  -0.41930
 Alpha  occ. eigenvalues --   -0.41930
 Alpha virt. eigenvalues --    0.04777   0.05635   0.08004   0.08004   0.09603
 Alpha virt. eigenvalues --    0.09603   0.10534   0.18400   0.20384   0.21923
 Alpha virt. eigenvalues --    0.21923   0.23112   0.25373   0.25373   0.29462

 Mulliken charges and spin densities:
               1          2
     1  C    0.232707   0.000000
     2  C   -0.202048   0.000000
     3  F   -0.288235   0.000000
     4  H    0.257575   0.000000
 Sum of Mulliken charges =  -0.00000   0.00000

 Dipole moment (field-independent basis, Debye):
    X=              0.0000    Y=              0.0000    Z=             -0.8985  Tot=              0.8985
 Quadrupole moment (field-independent basis, Debye-Ang):
   XX=            -17.1786   YY=            -17.1786   ZZ=            -12.7828
   XY=              0.0000   XZ=              0.0000   YZ=              0.0000

 Normal termination of Gaussian 16 at Sat Sep 30 08:56:31 2023.
