 Gaussian 16, Revision B.01,
 Gaussian 16:  ES64L-G16RevB.01 20-Dec-2017

 --------------------
 # b3lyp/gen opt freq
 --------------------

 ---------------------------------
 propargyl chloride, B3LYP/pcseg-2
 ---------------------------------
 Symbolic Z-matrix:
 Charge =  0 Multiplicity = 1

 SCF Done:  E(RB3LYP) =  -576.334113168     A.U. after   13 cycles
 SCF Done:  E(RB3LYP) =  -576.334145968     A.U. after   10 cycles
 SCF Done:  E(RB3LYP) =  -576.333676650     A.U. after   11 cycles
 SCF Done:  E(RB3LYP) =  -576.334151153     A.U. after   10 cycles
 SCF Done:  E(RB3LYP) =  -576.334163316     A.U. after    9 cycles
 Optimization completed.
    -- Stationary point found.
 Normal termination of Gaussian 16 at Fri Jun 17 12:35:56 2022.

 ------------------------------------------------------------------
 #N Geom=AllCheck Guess=TCheck SCRF=Check GenChk RB3LYP/ChkBas Freq
 ------------------------------------------------------------------

 Structure from the checkpoint file:  "/wrk/irikura/Gau-13178.chk"
 ---------------------------------
 propargyl chloride, B3LYP/pcseg-2
 ---------------------------------
 Charge =  0 Multiplicity = 1

                         Standard orientation:
 ---------------------------------------------------------------------
 Center     Atomic      Atomic             Coordinates (Angstroms)
 Number     Number       Type             X           Y           Z
 ---------------------------------------------------------------------
      1          6           0        2.304501   -0.459970    0.000000
      2          6           0        1.255018    0.117998    0.000000
      3          6           0        0.000000    0.832792    0.000000
      4          1           0        3.233510   -0.973631    0.000000
      5         17           0       -1.434430   -0.286980    0.000000
      6          1           0       -0.102661    1.453685    0.885777
      7          1           0       -0.102661    1.453685   -0.885777
 ---------------------------------------------------------------------

 SCF Done:  E(RB3LYP) =  -576.334163316     A.U. after    1 cycles

 The electronic state is 1-A'.
 Alpha  occ. eigenvalues -- -101.50931 -10.26542 -10.19442 -10.18622  -9.45432
 Alpha  occ. eigenvalues --   -7.21631  -7.20690  -7.20679  -0.87180  -0.77876
 Alpha  occ. eigenvalues --   -0.70571  -0.55478  -0.49915  -0.48673  -0.44069
 Alpha  occ. eigenvalues --   -0.31953  -0.31680  -0.29759  -0.29372
 Alpha virt. eigenvalues --   -0.03049   0.00896   0.01368   0.03904   0.06921
 Alpha virt. eigenvalues --    0.07623   0.10274   0.13305   0.16026   0.17208
 Alpha virt. eigenvalues --    0.20398   0.21338   0.23153   0.26529   0.27437

 Mulliken charges:
               1
     1  C   -0.211737
     2  C    0.127245
     3  C   -0.003048
     4  H    0.056548
     5  Cl  -0.144868
     6  H    0.087930
     7  H    0.087930
 Sum of Mulliken charges =  -0.00000

 Dipole moment (field-independent basis, Debye):
    X=              1.3476    Y=              1.2203    Z=             -0.0000  Tot=              1.8180
 Quadrupole moment (field-independent basis, Debye-Ang):
   XX=            -28.7993   YY=            -28.7846   ZZ=            -31.3101
   XY=             -2.4995   XZ=             -0.0000   YZ=             -0.0000

  Exact polarizability:  65.125  -4.729  38.665   0.000  -0.000  29.730
 Approx polarizability:  97.672 -10.716  58.982  -0.000  -0.000  42.103

                      1                      2                      3
                     A'                     A"                     A'
 Frequencies --    178.5680               324.6193               454.5300
 Red. masses --      5.1994                 2.8434                 8.1481
 Frc consts  --      0.0977                 0.1765                 0.9918
 IR Inten    --      2.4481                10.9014                 5.1007

                      4                      5                      6
                     A"                     A'                     A'
 Frequencies --    674.7150               698.2274               710.4161
 Red. masses --      1.2538                 4.7879                 1.3996
 Frc consts  --      0.3363                 1.3753                 0.4162
 IR Inten    --     51.1693                22.8029                78.5124

                      7                      8                      9
                     A"                     A'                     A"
 Frequencies --    917.7883               971.6521              1192.0515
 Red. masses --      1.5211                 4.4627                 1.0715
 Frc consts  --      0.7549                 2.4824                 0.8971
 IR Inten    --      0.0074                21.3967                 0.4934

                     10                     11                     12
                     A'                     A'                     A'
 Frequencies --   1282.9847              1472.8402              2227.9876
 Red. masses --      1.1922                 1.1005                 5.9513
 Frc consts  --      1.1562                 1.4065                17.4056
 IR Inten    --     42.2234                 2.7365                 0.9195

                     13                     14                     15
                     A'                     A"                     A'
 Frequencies --   3085.8440              3134.2112              3471.2264
 Red. masses --      1.0561                 1.1090                 1.1615
 Frc consts  --      5.9251                 6.4186                 8.2460
 IR Inten    --      6.6317                 0.0317                64.9835

 - Thermochemistry -
 -------------------
 Temperature   298.150 Kelvin.  Pressure   1.00000 Atm.
 Atom     1 has atomic number  6 and mass  12.00000

 Molecular mass:    73.99233 amu.
 Principal axes and moments of inertia in atomic units:
                           1         2         3
     Eigenvalues --    73.70449 594.44077 656.85012
           X            1.00000   0.00104   0.00000
           Y           -0.00104   1.00000   0.00000
           Z            0.00000  -0.00000   1.00000
 This molecule is an asymmetric top.
 Rotational symmetry number  1.
 Rotational temperatures (Kelvin)      1.17515     0.14571     0.13186
 Rotational constants (GHZ):          24.48618     3.03603     2.74757
 Zero-point vibrational energy     124397.6 (Joules/Mol)
                                   29.73175 (Kcal/Mol)
 Warning -- explicit consideration of   3 degrees of freedom as
           vibrations may cause significant error
 Vibrational temperatures:    256.92   467.05   653.97   970.76  1004.59
          (Kelvin)           1022.13  1320.49  1397.99  1715.10  1845.93
                             2119.09  3205.58  4439.84  4509.43  4994.32

 Zero-point correction=                           0.047381 (Hartree/Particle)
 Thermal correction to Energy=                    0.051930
 Thermal correction to Enthalpy=                  0.052874
 Thermal correction to Gibbs Free Energy=         0.019919
 Sum of electronic and zero-point Energies=           -576.286783
 Sum of electronic and thermal Energies=              -576.282233
 Sum of electronic and thermal Enthalpies=            -576.281289
 Sum of electronic and thermal Free Energies=         -576.314245

                     E (Thermal)             CV                S
                      KCal/Mol        Cal/Mol-Kelvin    Cal/Mol-Kelvin
 Total                   32.587             14.668             69.361
 Electronic               0.000              0.000              0.000
 Translational            0.889              2.981             38.820
 Rotational               0.889              2.981             24.868
 Vibrational             30.809              8.706              5.673
 Vibration     1          0.629              1.869              2.343
 Vibration     2          0.709              1.626              1.287
 Vibration     3          0.813              1.351              0.782

 Optimization completed.
    -- Stationary point found.
 Normal termination of Gaussian 16 at Fri Jun 17 12:36:37 2022.
