 Gaussian 16, Revision B.01,
 Gaussian 16:  ES64L-G16RevB.01 20-Dec-2017

 -----------------------
 # b3lyp/gen opt=calcall
 -----------------------

 -----------------------------
 cyanomethylene, B3LYP/pcseg-2
 -----------------------------
 Symbolic Z-matrix:
 Charge =  0 Multiplicity = 3

 SCF Done:  E(UB3LYP) =  -169.481132300     A.U. after   21 cycles
 SCF Done:  E(UB3LYP) =  -169.481424696     A.U. after   17 cycles
 SCF Done:  E(UB3LYP) =  -169.481425129     A.U. after   13 cycles
 Optimization completed.
    -- Stationary point found.

                         Standard orientation:
 ---------------------------------------------------------------------
 Center     Atomic      Atomic             Coordinates (Angstroms)
 Number     Number       Type             X           Y           Z
 ---------------------------------------------------------------------
      1          6           0        1.738871    0.121867    0.000008
      2          6           0        0.560872   -0.480323    0.000004
      3          7           0       -0.676824   -0.025867   -0.000021
      4          1           0        1.999911    1.176298   -0.000014
      5          6           0       -1.843434    0.192585    0.000015
 ---------------------------------------------------------------------

 The electronic state is 3-A.
 Alpha  occ. eigenvalues --  -14.40387 -10.28908 -10.25925 -10.25496  -1.01704
 Alpha  occ. eigenvalues --   -0.84099  -0.71808  -0.54664  -0.47375  -0.45879
 Alpha  occ. eigenvalues --   -0.35676  -0.34270  -0.31182  -0.25523
 Alpha virt. eigenvalues --   -0.08144  -0.02060   0.03280   0.04309   0.07959
 Alpha virt. eigenvalues --    0.12668   0.14275   0.14482   0.15875   0.16994
 Alpha virt. eigenvalues --    0.20701   0.21045   0.24131   0.24570   0.27930

  Beta  occ. eigenvalues --  -14.40283 -10.27467 -10.25524 -10.23786  -1.00745
  Beta  occ. eigenvalues --   -0.81141  -0.68995  -0.52033  -0.45391  -0.43668
  Beta  occ. eigenvalues --   -0.34410  -0.29536
  Beta virt. eigenvalues --   -0.19291  -0.09133  -0.06689   0.00221   0.04185
  Beta virt. eigenvalues --    0.05412   0.08820   0.14584   0.14962   0.15561
  Beta virt. eigenvalues --    0.16622   0.17775   0.21625   0.21632   0.25079

 Mulliken charges and spin densities:
               1          2
     1  C   -0.060838   0.962707
     2  C    0.155998   0.751423
     3  N   -0.223755  -0.013322
     4  H    0.083221   0.065528
     5  C    0.045374   0.233664
 Sum of Mulliken charges =  -0.00000   2.00000

 Dipole moment (field-independent basis, Debye):
    X=              1.9619    Y=              0.5434    Z=             -0.0000  Tot=              2.0358
 Quadrupole moment (field-independent basis, Debye-Ang):
   XX=            -27.5415   YY=            -21.9312   ZZ=            -23.5929
   XY=              2.7657   XZ=              0.0000   YZ=             -0.0000

  Exact polarizability:  72.211   0.564  30.945  -0.000   0.000  26.730
 Approx polarizability: 125.227  -0.090  44.226  -0.000   0.000  35.083

                      1                      2                      3
                      A                      A                      A
 Frequencies --    218.1476               289.5132               490.2252
 Red. masses --      5.6723                 7.3777                 4.7244
 Frc consts  --      0.1590                 0.3643                 0.6689
 IR Inten    --      4.7300                 7.1312                 2.5465

                      4                      5                      6
                      A                      A                      A
 Frequencies --    652.0899               958.8762               989.4960
 Red. masses --      1.7631                 1.4374                 8.6000
 Frc consts  --      0.4417                 0.7787                 4.9611
 IR Inten    --     28.6908                 3.4147                 5.4898

                      7                      8                      9
                      A                      A                      A
 Frequencies --   1691.5230              2015.1362              3129.4190
 Red. masses --      9.5093                12.9353                 1.0955
 Frc consts  --     16.0308                30.9482                 6.3210
 IR Inten    --      2.4971               176.4868                 2.4935

 - Thermochemistry -
 -------------------
 Temperature   298.150 Kelvin.  Pressure   1.00000 Atm.
 Atom     1 has atomic number  6 and mass  12.00000

 Molecular mass:    51.01090 amu.
 Principal axes and moments of inertia in atomic units:
                           1         2         3
     Eigenvalues --    16.79661 325.93714 342.73375
           X            0.99962   0.02750  -0.00000
           Y           -0.02750   0.99962  -0.00000
           Z            0.00000   0.00000   1.00000
 This molecule is an asymmetric top.
 Rotational symmetry number  1.
 Rotational temperatures (Kelvin)      5.15663     0.26574     0.25271
 Rotational constants (GHZ):         107.44677     5.53708     5.26572
 Zero-point vibrational energy      62411.7 (Joules/Mol)
                                   14.91676 (Kcal/Mol)
 Warning -- explicit consideration of   3 degrees of freedom as
           vibrations may cause significant error
 Vibrational temperatures:    313.87   416.54   705.32   938.21  1379.61
          (Kelvin)           1423.66  2433.72  2899.33  4502.54

 Zero-point correction=                           0.023771 (Hartree/Particle)
 Thermal correction to Energy=                    0.028019
 Thermal correction to Enthalpy=                  0.028964
 Thermal correction to Gibbs Free Energy=        -0.002760
 Sum of electronic and zero-point Energies=           -169.457654
 Sum of electronic and thermal Energies=              -169.453406
 Sum of electronic and thermal Enthalpies=            -169.452462
 Sum of electronic and thermal Free Energies=         -169.484185

                     E (Thermal)             CV                S
                      KCal/Mol        Cal/Mol-Kelvin    Cal/Mol-Kelvin
 Total                   17.582             12.526             66.767
 Electronic               0.000              0.000              2.183
 Translational            0.889              2.981             37.712
 Rotational               0.889              2.981             22.155
 Vibrational             15.805              6.564              4.717
 Vibration     1          0.646              1.813              1.974
 Vibration     2          0.686              1.693              1.477
 Vibration     3          0.846              1.272              0.683

 Normal termination of Gaussian 16 at Mon Jun 20 08:51:36 2022.
