 Gaussian 16, Revision B.01,
 Gaussian 16:  ES64L-G16RevB.01 20-Dec-2017

 --------------------
 # b3lyp/gen opt freq
 --------------------

 --------------------------------
 isocyanoacetylene, B3LYP/pcseg-2
 --------------------------------
 Symbolic Z-matrix:
 Charge =  0 Multiplicity = 1

 SCF Done:  E(RB3LYP) =  -169.598314107     A.U. after   14 cycles
 SCF Done:  E(RB3LYP) =  -169.602031934     A.U. after   12 cycles
 SCF Done:  E(RB3LYP) =  -169.602116052     A.U. after    9 cycles
 SCF Done:  E(RB3LYP) =  -169.602116791     A.U. after    8 cycles
 Optimization completed.
    -- Stationary point found.
 Normal termination of Gaussian 16 at Sun Sep 10 20:21:48 2023.

 ------------------------------------------------------------------
 #N Geom=AllCheck Guess=TCheck SCRF=Check GenChk RB3LYP/ChkBas Freq
 ------------------------------------------------------------------

 Structure from the checkpoint file:  "/wrk/irikura/Gau-106221.chk"
 --------------------------------
 isocyanoacetylene, B3LYP/pcseg-2
 --------------------------------
 Charge =  0 Multiplicity = 1

                         Standard orientation:
 ---------------------------------------------------------------------
 Center     Atomic      Atomic             Coordinates (Angstroms)
 Number     Number       Type             X           Y           Z
 ---------------------------------------------------------------------
      1          6           0        0.000000    0.000000    1.921435
      2          7           0        0.000000    0.000000    0.745080
      3          6           0        0.000000    0.000000   -0.560841
      4          6           0        0.000000    0.000000   -1.759684
      5          1           0        0.000000    0.000000   -2.821022
 ---------------------------------------------------------------------

 SCF Done:  E(RB3LYP) =  -169.602116791     A.U. after    1 cycles

 The electronic state is 1-SG.
 Alpha  occ. eigenvalues --  -14.40065 -10.25863 -10.25241 -10.21890  -1.01012
 Alpha  occ. eigenvalues --   -0.81936  -0.72961  -0.56233  -0.45729  -0.45729
 Alpha  occ. eigenvalues --   -0.34401  -0.31238  -0.31238
 Alpha virt. eigenvalues --   -0.05935  -0.05935   0.02098   0.06532   0.07365
 Alpha virt. eigenvalues --    0.07365   0.14073   0.14369   0.14369   0.14982
 Alpha virt. eigenvalues --    0.17982   0.22343   0.22343   0.27262   0.27262

 Mulliken charges:
               1
     1  C    0.083711
     2  N   -0.381381
     3  C    0.331980
     4  C   -0.103465
     5  H    0.069154
 Sum of Mulliken charges =  -0.00000

 Dipole moment (field-independent basis, Debye):
    X=              0.0000    Y=              0.0000    Z=             -2.9493  Tot=              2.9493
 Quadrupole moment (field-independent basis, Debye-Ang):
   XX=            -23.0423   YY=            -23.0423   ZZ=            -22.6131
   XY=              0.0000   XZ=              0.0000   YZ=              0.0000

  Exact polarizability:  22.136  -0.000  22.136  -0.000  -0.000  73.868
 Approx polarizability:  29.876  -0.000  29.876  -0.000  -0.000 141.696

                      1                      2                      3
                     PI                     PI                     PI
 Frequencies --    229.2909               229.2909               481.2492
 Red. masses --      6.8820                 6.8820                10.5323
 Frc consts  --      0.2132                 0.2132                 1.4372
 IR Inten    --      0.1066                 0.1066                 0.0151

                      4                      5                      6
                     PI                     PI                     PI
 Frequencies --    481.2492               657.8267               657.8267
 Red. masses --     10.5323                 1.2229                 1.2229
 Frc consts  --      1.4372                 0.3118                 0.3118
 IR Inten    --      0.0151                49.0787                49.0787

                      7                      8                      9
                     SG                     SG                     SG
 Frequencies --    969.0635              2112.2181              2295.2181
 Red. masses --      8.7988                 9.1884                 7.6765
 Frc consts  --      4.8683                24.1529                23.8266
 IR Inten    --      0.9307                85.9632                83.7920

                     10
                     SG
 Frequencies --   3474.4412
 Red. masses --      1.1589
 Frc consts  --      8.2427
 IR Inten    --    101.6799

 - Thermochemistry -
 -------------------
 Temperature   298.150 Kelvin.  Pressure   1.00000 Atm.
 Atom     1 has atomic number  6 and mass  12.00000

 Molecular mass:    51.01090 amu.
 Principal axes and moments of inertia in atomic units:
                           1         2         3
     Eigenvalues --     0.00000 360.23350 360.23350
           X            0.00000  -0.00000   1.00000
           Y            0.00000   1.00000   0.00000
           Z            1.00000   0.00000   0.00000
 This molecule is a prolate symmetric top.
 Rotational symmetry number  1.
 Rotational temperature (Kelvin)      0.24044
 Rotational constant (GHZ):           5.009920
 Zero-point vibrational energy      69309.7 (Joules/Mol)
                                   16.56541 (Kcal/Mol)
 Warning -- explicit consideration of   4 degrees of freedom as
           vibrations may cause significant error
 Vibrational temperatures:    329.90   329.90   692.41   692.41   946.47
          (Kelvin)            946.47  1394.27  3039.01  3302.31  4998.95

 Zero-point correction=                           0.026399 (Hartree/Particle)
 Thermal correction to Energy=                    0.030572
 Thermal correction to Enthalpy=                  0.031516
 Thermal correction to Gibbs Free Energy=         0.003073
 Sum of electronic and zero-point Energies=           -169.575718
 Sum of electronic and thermal Energies=              -169.571545
 Sum of electronic and thermal Enthalpies=            -169.570601
 Sum of electronic and thermal Free Energies=         -169.599044

                     E (Thermal)             CV                S
                      KCal/Mol        Cal/Mol-Kelvin    Cal/Mol-Kelvin
 Total                   19.184             13.392             59.863
 Electronic               0.000              0.000              0.000
 Translational            0.889              2.981             37.712
 Rotational               0.592              1.987             16.142
 Vibrational             17.703              8.424              6.010
 Vibration     1          0.652              1.796              1.884
 Vibration     2          0.652              1.796              1.884
 Vibration     3          0.838              1.292              0.707
 Vibration     4          0.838              1.292              0.707

 Optimization completed.
    -- Stationary point found.
 Normal termination of Gaussian 16 at Sun Sep 10 20:22:05 2023.
