 Gaussian 16, Revision B.01,

 ---------------------------------------
 # b3lyp/gen opt freq CPHF(Grid=OneStep)
 ---------------------------------------

 -----------------------------
 cyanomethylene, B3LYP/pcseg-2
 -----------------------------
 Symbolic Z-matrix:
 Charge =  0 Multiplicity = 3

 SCF Done:  E(UB3LYP) =  -131.473989460     A.U. after   16 cycles
 Optimization completed.
    -- Stationary point found.
 Normal termination of Gaussian 16 at Sat Sep 30 22:03:44 2023.

 ------------------------------------------------------------------
 #N Geom=AllCheck Guess=TCheck SCRF=Check GenChk UB3LYP/ChkBas Freq
 ------------------------------------------------------------------

 Structure from the checkpoint file:  "hccn.chk"
 -----------------------------
 cyanomethylene, B3LYP/pcseg-2
 -----------------------------
 Charge =  0 Multiplicity = 3

 SCF Done:  E(UB3LYP) =  -131.473989460     A.U. after    1 cycles

  Exact polarizability:  16.843  -3.143  46.998   0.000   0.000  16.270
 Approx polarizability:  21.830  -5.907  86.460  -0.000  -0.000  20.947

                      1                      2                      3
                     A'                     A"                     A'
 Frequencies --    296.7386               445.2762               447.9908
 Red. masses --      1.1909                 6.1700                10.5978
 Frc consts  --      0.0618                 0.7208                 1.2532
 IR Inten    --     47.5796                 0.6464                 4.0488

                      4                      5                      6
                     A'                     A'                     A'
 Frequencies --   1252.3795              1756.1380              3398.6471
 Red. masses --      7.0680                10.7541                 1.1069
 Frc consts  --      6.5316                19.5407                 7.5334
 IR Inten    --      5.6774                31.0742                50.8178

 - Thermochemistry -
 -------------------
 Temperature   298.150 Kelvin.  Pressure   1.00000 Atm.
 Atom     1 has atomic number  6 and mass  12.00000

 Molecular mass:    39.01090 amu.
 Principal axes and moments of inertia in atomic units:
                           1         2         3
     Eigenvalues --     0.41039 162.34288 162.75327
           X           -0.12230   0.99249   0.00000
           Y            0.99249   0.12230   0.00000
           Z           -0.00000   0.00000   1.00000
 This molecule is an asymmetric top.
 Rotational symmetry number  1.
 Rotational temperatures (Kelvin)    211.05481     0.53352     0.53218
 Rotational constants (GHZ):        4397.66847    11.11685    11.08882
 Zero-point vibrational energy      45441.2 (Joules/Mol)
                                   10.86070 (Kcal/Mol)
 Warning -- explicit consideration of   3 degrees of freedom as
           vibrations may cause significant error
 Vibrational temperatures:    426.94   640.65   644.56  1801.89  2526.69
          (Kelvin)           4889.90

 Zero-point correction=                           0.017308 (Hartree/Particle)
 Thermal correction to Energy=                    0.021113
 Thermal correction to Enthalpy=                  0.022057
 Thermal correction to Gibbs Free Energy=        -0.006077
 Sum of electronic and zero-point Energies=           -131.456682
 Sum of electronic and thermal Energies=              -131.452876
 Sum of electronic and thermal Enthalpies=            -131.451932
 Sum of electronic and thermal Free Energies=         -131.480067

                     E (Thermal)             CV                S
                      KCal/Mol        Cal/Mol-Kelvin    Cal/Mol-Kelvin
 Total                   13.249             10.581             59.215
 Electronic               0.000              0.000              2.183
 Translational            0.889              2.981             36.912
 Rotational               0.889              2.981             17.035
 Vibrational             11.471              4.619              3.085
 Vibration     1          0.690              1.680              1.435
 Vibration     2          0.805              1.371              0.810
 Vibration     3          0.807              1.365              0.802

 Optimization completed.
    -- Stationary point found.
 Normal termination of Gaussian 16 at Sat Sep 30 22:04:25 2023.
 Gaussian 16:  ES64L-G16RevB.01 20-Dec-2017

 ---------------------------------
 # rohf/gen geom=check guess=check
 ---------------------------------

 --------------------------------
 cyanomethylene, ROHF/cc-pVTZ-F12
 --------------------------------
 Structure from the checkpoint file:  "hccn.chk"
 Charge =  0 Multiplicity = 3

                         Standard orientation:
 ---------------------------------------------------------------------
 Center     Atomic      Atomic             Coordinates (Angstroms)
 Number     Number       Type             X           Y           Z
 ---------------------------------------------------------------------
      1          6           0        0.097418   -1.205933    0.000000
      2          6           0        0.000000    0.083724    0.000000
      3          7           0       -0.163246    1.271397    0.000000
      4          1           0        0.558212   -2.166524    0.000000
 ---------------------------------------------------------------------

 SCF Done:  E(ROHF) =  -130.684870626     A.U. after   20 cycles

 The electronic state is 3-A".
 Alpha  occ. eigenvalues --  -15.60359 -11.30920 -11.30328  -1.21628  -1.00390
 Alpha  occ. eigenvalues --   -0.75465  -0.57903  -0.50068  -0.49931  -0.12673
 Alpha  occ. eigenvalues --   -0.12223
 Alpha virt. eigenvalues --    0.03379   0.06580   0.07175   0.07319   0.09744
 Alpha virt. eigenvalues --    0.09934   0.10198   0.16392   0.17486   0.18070
 Alpha virt. eigenvalues --    0.18255   0.21940   0.23962   0.25501   0.28507

 Mulliken charges and spin densities:
               1          2
     1  C    0.002632   1.586626
     2  C    0.092938   0.057120
     3  N   -0.343959   0.321098
     4  H    0.248388   0.035156
 Sum of Mulliken charges =  -0.00000   2.00000

 Dipole moment (field-independent basis, Debye):
    X=              0.8365    Y=             -3.8777    Z=              0.0000  Tot=              3.9669
 Quadrupole moment (field-independent basis, Debye-Ang):
   XX=            -17.2541   YY=            -16.6021   ZZ=            -17.6376
   XY=             -0.9482   XZ=              0.0000   YZ=              0.0000

 Normal termination of Gaussian 16 at Sat Sep 30 22:04:36 2023.
