 Gaussian 16, Revision B.01,
 Gaussian 16:  ES64L-G16RevB.01 20-Dec-2017

 -----------------------
 # b3lyp/gen opt=calcall
 -----------------------

 -----------------------------
 cyanomethylene, B3LYP/pcseg-2
 -----------------------------
 Symbolic Z-matrix:
 Charge =  0 Multiplicity = 3

 SCF Done:  E(UB3LYP) =  -131.473926877     A.U. after   16 cycles
 SCF Done:  E(UB3LYP) =  -131.473988251     A.U. after   13 cycles
 SCF Done:  E(UB3LYP) =  -131.473989460     A.U. after   10 cycles
 Optimization completed.
    -- Stationary point found.

                         Standard orientation:
 ---------------------------------------------------------------------
 Center     Atomic      Atomic             Coordinates (Angstroms)
 Number     Number       Type             X           Y           Z
 ---------------------------------------------------------------------
      1          6           0        0.097415   -1.205933    0.000000
      2          6           0       -0.000000    0.083724    0.000000
      3          7           0       -0.163243    1.271397    0.000000
      4          1           0        0.558207   -2.166525    0.000000
 ---------------------------------------------------------------------

 The electronic state is 3-A".
 Alpha  occ. eigenvalues --  -14.36709 -10.26347 -10.23784  -0.94782  -0.79414
 Alpha  occ. eigenvalues --   -0.58081  -0.42277  -0.42195  -0.41457  -0.29033
 Alpha  occ. eigenvalues --   -0.28414
 Alpha virt. eigenvalues --    0.00978   0.03690   0.05086   0.07806   0.12878
 Alpha virt. eigenvalues --    0.14854   0.15083   0.21309   0.22392   0.22957
 Alpha virt. eigenvalues --    0.28358   0.34750   0.37797   0.39536   0.42840

  Beta  occ. eigenvalues --  -14.34700 -10.24446 -10.24072  -0.91553  -0.74478
  Beta  occ. eigenvalues --   -0.56238  -0.38821  -0.37900  -0.37839
  Beta virt. eigenvalues --   -0.14470  -0.14042   0.01878   0.06009   0.07796
  Beta virt. eigenvalues --    0.08223   0.14257   0.16929   0.17330   0.22060
  Beta virt. eigenvalues --    0.23756   0.24145   0.29172   0.35406   0.39325

 Mulliken charges and spin densities:
               1          2
     1  C   -0.048832   1.477704
     2  C    0.130729  -0.395483
     3  N   -0.200071   0.951882
     4  H    0.118175  -0.034103
 Sum of Mulliken charges =  -0.00000   2.00000

 Dipole moment (field-independent basis, Debye):
    X=              0.7431    Y=             -3.1107    Z=              0.0000  Tot=              3.1982
 Quadrupole moment (field-independent basis, Debye-Ang):
   XX=            -17.1096   YY=            -16.6292   ZZ=            -17.4892
   XY=             -0.9496   XZ=              0.0000   YZ=              0.0000

  Exact polarizability:  16.843  -3.143  46.997   0.000   0.000  16.270
 Approx polarizability:  21.830  -5.907  86.460  -0.000  -0.000  20.947

                      1                      2                      3
                     A'                     A"                     A'
 Frequencies --    296.7730               445.2701               447.9921
 Red. masses --      1.1909                 6.1701                10.5964
 Frc consts  --      0.0618                 0.7208                 1.2530
 IR Inten    --     47.5855                 0.6465                 4.0468

                      4                      5                      6
                     A'                     A'                     A'
 Frequencies --   1252.3812              1756.1370              3398.6433
 Red. masses --      7.0680                10.7542                 1.1069
 Frc consts  --      6.5316                19.5408                 7.5334
 IR Inten    --      5.6769                31.0736                50.8206

 - Thermochemistry -
 -------------------
 Temperature   298.150 Kelvin.  Pressure   1.00000 Atm.
 Atom     1 has atomic number  6 and mass  12.00000

 Molecular mass:    39.01090 amu.
 Principal axes and moments of inertia in atomic units:
                           1         2         3
     Eigenvalues --     0.41038 162.34283 162.75321
           X           -0.12230   0.99249   0.00000
           Y            0.99249   0.12230   0.00000
           Z           -0.00000   0.00000   1.00000
 This molecule is an asymmetric top.
 Rotational symmetry number  1.
 Rotational temperatures (Kelvin)    211.05588     0.53352     0.53218
 Rotational constants (GHZ):        4397.69065    11.11685    11.08882
 Zero-point vibrational energy      45441.3 (Joules/Mol)
                                   10.86074 (Kcal/Mol)
 Warning -- explicit consideration of   3 degrees of freedom as
           vibrations may cause significant error
 Vibrational temperatures:    426.99   640.64   644.56  1801.90  2526.69
          (Kelvin)           4889.89

 Zero-point correction=                           0.017308 (Hartree/Particle)
 Thermal correction to Energy=                    0.021113
 Thermal correction to Enthalpy=                  0.022057
 Thermal correction to Gibbs Free Energy=        -0.006077
 Sum of electronic and zero-point Energies=           -131.456682
 Sum of electronic and thermal Energies=              -131.452876
 Sum of electronic and thermal Enthalpies=            -131.451932
 Sum of electronic and thermal Free Energies=         -131.480067

                     E (Thermal)             CV                S
                      KCal/Mol        Cal/Mol-Kelvin    Cal/Mol-Kelvin
 Total                   13.249             10.581             59.214
 Electronic               0.000              0.000              2.183
 Translational            0.889              2.981             36.912
 Rotational               0.889              2.981             17.035
 Vibrational             11.471              4.619              3.084
 Vibration     1          0.690              1.680              1.435
 Vibration     2          0.805              1.371              0.810
 Vibration     3          0.807              1.365              0.802

 Normal termination of Gaussian 16 at Sun Sep 10 18:35:52 2023.
