 Gaussian 16, Revision B.01,

 ---------------------------------------
 # b3lyp/gen opt freq CPHF(Grid=OneStep)
 ---------------------------------------

 ----------------------
 ethynol, B3LYP/pcseg-2
 ----------------------
 Symbolic Z-matrix:
 Charge =  0 Multiplicity = 1

 SCF Done:  E(RB3LYP) =  -152.611039429     A.U. after   13 cycles
 SCF Done:  E(RB3LYP) =  -152.611039337     A.U. after    7 cycles
 SCF Done:  E(RB3LYP) =  -152.611039470     A.U. after    7 cycles
 Optimization completed.
    -- Stationary point found.
 Normal termination of Gaussian 16 at Fri Sep 29 22:32:03 2023.

 ------------------------------------------------------------------
 #N Geom=AllCheck Guess=TCheck SCRF=Check GenChk RB3LYP/ChkBas Freq
 ------------------------------------------------------------------

 Structure from the checkpoint file:  "hccoh.chk"
 ----------------------
 ethynol, B3LYP/pcseg-2
 ----------------------
 Charge =  0 Multiplicity = 1

 SCF Done:  E(RB3LYP) =  -152.611039470     A.U. after    1 cycles

  Exact polarizability:  17.387  -0.045  40.566   0.000   0.000  16.776
 Approx polarizability:  22.877   0.913  68.100   0.000   0.000  21.099

                      1                      2                      3
                     A'                     A"                     A"
 Frequencies --    398.8258               439.4546               550.1274
 Red. masses --      4.9772                 9.6362                 1.1582
 Frc consts  --      0.4664                 1.0964                 0.2065
 IR Inten    --     12.3123                 3.5333                73.2671

                      4                      5                      6
                     A'                     A'                     A'
 Frequencies --    651.6685              1084.1732              1249.4384
 Red. masses --      1.1913                 9.3950                 1.1770
 Frc consts  --      0.2981                 6.5065                 1.0826
 IR Inten    --     55.0156               101.8711                86.2218

                      7                      8                      9
                     A'                     A'                     A'
 Frequencies --   2278.2045              3487.5320              3773.5444
 Red. masses --      6.1396                 1.1592                 1.0661
 Frc consts  --     18.7749                 8.3073                 8.9440
 IR Inten    --    160.6898                97.8742               114.5588

 - Thermochemistry -
 -------------------
 Temperature   298.150 Kelvin.  Pressure   1.00000 Atm.
 Atom     1 has atomic number  6 and mass  12.00000

 Molecular mass:    42.01056 amu.
 Principal axes and moments of inertia in atomic units:
                           1         2         3
     Eigenvalues --     2.63898 184.42621 187.06518
           X            0.05117   0.99869   0.00000
           Y            0.99869  -0.05117   0.00000
           Z            0.00000   0.00000   1.00000
 This molecule is an asymmetric top.
 Rotational symmetry number  1.
 Rotational temperatures (Kelvin)     32.82099     0.46964     0.46301
 Rotational constants (GHZ):         683.87846     9.78571     9.64766
 Zero-point vibrational energy      83218.0 (Joules/Mol)
                                   19.88959 (Kcal/Mol)
 Warning -- explicit consideration of   3 degrees of freedom as
           vibrations may cause significant error
 Vibrational temperatures:    573.82   632.28   791.51   937.61  1559.88
          (Kelvin)           1797.66  3277.83  5017.78  5429.29

 Zero-point correction=                           0.031696 (Hartree/Particle)
 Thermal correction to Energy=                    0.035476
 Thermal correction to Enthalpy=                  0.036420
 Thermal correction to Gibbs Free Energy=         0.008344
 Sum of electronic and zero-point Energies=           -152.579343
 Sum of electronic and thermal Energies=              -152.575564
 Sum of electronic and thermal Enthalpies=            -152.574620
 Sum of electronic and thermal Free Energies=         -152.602695

                     E (Thermal)             CV                S
                      KCal/Mol        Cal/Mol-Kelvin    Cal/Mol-Kelvin
 Total                   22.261             11.355             59.090
 Electronic               0.000              0.000              0.000
 Translational            0.889              2.981             37.133
 Rotational               0.889              2.981             19.149
 Vibrational             20.484              5.393              2.809
 Vibration     1          0.765              1.473              0.967
 Vibration     2          0.799              1.384              0.828
 Vibration     3          0.905              1.139              0.544

 Optimization completed.
    -- Stationary point found.
 Normal termination of Gaussian 16 at Fri Sep 29 22:32:46 2023.
 Gaussian 16:  ES64L-G16RevB.01 20-Dec-2017

 ---------------------------------
 # rohf/gen geom=check guess=check
 ---------------------------------

 -------------------------
 ethynol, ROHF/cc-pVTZ-F12
 -------------------------
 Structure from the checkpoint file:  "hccoh.chk"
 Charge =  0 Multiplicity = 1

                         Standard orientation:
 ---------------------------------------------------------------------
 Center     Atomic      Atomic             Coordinates (Angstroms)
 Number     Number       Type             X           Y           Z
 ---------------------------------------------------------------------
      1          6           0        0.053208    1.318784    0.000000
      2          6           0       -0.000000    0.123191    0.000000
      3          8           0       -0.142697   -1.176742   -0.000000
      4          1           0        0.106028    2.377135    0.000000
      5          1           0        0.716298   -1.615051   -0.000000
 ---------------------------------------------------------------------

 SCF Done:  E(ROHF) =  -151.739099763     A.U. after   12 cycles

 The electronic state is 1-A'.
 Alpha  occ. eigenvalues --  -20.63705 -11.29706 -11.22084  -1.45256  -1.02433
 Alpha  occ. eigenvalues --   -0.82566  -0.70788  -0.66655  -0.62496  -0.39683
 Alpha  occ. eigenvalues --   -0.37939
 Alpha virt. eigenvalues --    0.04275   0.05120   0.08043   0.08388   0.09766
 Alpha virt. eigenvalues --    0.09979   0.10958   0.16978   0.18272   0.19262
 Alpha virt. eigenvalues --    0.20642   0.21869   0.22071   0.24568   0.25668

 Mulliken charges and spin densities:
               1          2
     1  C   -0.225870   0.000000
     2  C    0.149916   0.000000
     3  O   -0.598986   0.000000
     4  H    0.245903   0.000000
     5  H    0.429039   0.000000
 Sum of Mulliken charges =  -0.00000   0.00000

 Dipole moment (field-independent basis, Debye):
    X=              1.5538    Y=             -0.6178    Z=             -0.0000  Tot=              1.6721
 Quadrupole moment (field-independent basis, Debye-Ang):
   XX=            -17.4637   YY=            -12.0765   ZZ=            -19.0614
   XY=             -2.8153   XZ=             -0.0000   YZ=              0.0000

 Normal termination of Gaussian 16 at Fri Sep 29 22:32:58 2023.
