 Gaussian 16, Revision B.01,
 Gaussian 16:  ES64L-G16RevB.01 20-Dec-2017

 --------------------
 # b3lyp/gen opt freq
 --------------------

 ----------------------
 ketenyl, B3LYP/pcseg-2
 ----------------------
 Symbolic Z-matrix:
 Charge =  0 Multiplicity = 2

 SCF Done:  E(UB3LYP) =  -151.991466284     A.U. after   16 cycles
 SCF Done:  E(UB3LYP) =  -151.991513617     A.U. after   10 cycles
 SCF Done:  E(UB3LYP) =  -151.991524630     A.U. after   11 cycles
 SCF Done:  E(UB3LYP) =  -151.991527979     A.U. after   11 cycles
 SCF Done:  E(UB3LYP) =  -151.991539314     A.U. after   10 cycles
 SCF Done:  E(UB3LYP) =  -151.991546802     A.U. after   10 cycles
 SCF Done:  E(UB3LYP) =  -151.991547438     A.U. after    9 cycles
 Optimization completed.
    -- Stationary point found.
 Normal termination of Gaussian 16 at Wed Jun 15 16:48:53 2022.

 ------------------------------------------------------------------
 #N Geom=AllCheck Guess=TCheck SCRF=Check GenChk UB3LYP/ChkBas Freq
 ------------------------------------------------------------------

 Structure from the checkpoint file:  "/wrk/irikura/Gau-3343.chk"
 ----------------------
 ketenyl, B3LYP/pcseg-2
 ----------------------
 Charge =  0 Multiplicity = 2

                         Standard orientation:
 ---------------------------------------------------------------------
 Center     Atomic      Atomic             Coordinates (Angstroms)
 Number     Number       Type             X           Y           Z
 ---------------------------------------------------------------------
      1          6           0        0.000000    0.044411    0.000000
      2          6           0        1.047850   -0.698973    0.000000
      3          8           0       -1.049849    0.564681    0.000000
      4          1           0        2.111696   -0.590078    0.000000
 ---------------------------------------------------------------------

 SCF Done:  E(UB3LYP) =  -151.991547438     A.U. after    1 cycles

 The electronic state is 2-A".
 Alpha  occ. eigenvalues --  -19.20866 -10.30024 -10.22860  -1.13528  -0.80224
 Alpha  occ. eigenvalues --   -0.56323  -0.52221  -0.48823  -0.46505  -0.30320
 Alpha  occ. eigenvalues --   -0.28310
 Alpha virt. eigenvalues --   -0.00277   0.02041   0.02381   0.07935   0.13494
 Alpha virt. eigenvalues --    0.14737   0.17629   0.21385   0.22367   0.23438
 Alpha virt. eigenvalues --    0.28914   0.35340   0.37985   0.45242   0.46038

  Beta  occ. eigenvalues --  -19.20024 -10.30055 -10.21794  -1.12116  -0.77195
  Beta  occ. eigenvalues --   -0.55208  -0.51338  -0.46048  -0.44701  -0.26954
  Beta virt. eigenvalues --   -0.17539   0.00091   0.02342   0.06015   0.08029
  Beta virt. eigenvalues --    0.13838   0.16082   0.18145   0.21600   0.24100
  Beta virt. eigenvalues --    0.24141   0.29427   0.35738   0.38372   0.46317

 Mulliken charges and spin densities:
               1          2
     1  C    0.336329   0.021812
     2  C   -0.167183   0.716161
     3  O   -0.267858   0.288117
     4  H    0.098712  -0.026090
 Sum of Mulliken charges =  -0.00000   1.00000

 Dipole moment (field-independent basis, Debye):
    X=              1.7569    Y=              0.2731    Z=              0.0000  Tot=              1.7780
 Quadrupole moment (field-independent basis, Debye-Ang):
   XX=            -15.3185   YY=            -19.3719   ZZ=            -16.4045
   XY=              0.7789   XZ=              0.0000   YZ=              0.0000

  Exact polarizability:  34.500 -11.598  25.111   0.000  -0.000  16.989
 Approx polarizability:  59.743 -27.412  41.775  -0.000  -0.000  19.446

                      1                      2                      3
                     A'                     A"                     A'
 Frequencies --    452.1006               502.4474               561.5781
 Red. masses --      1.1965                 4.3038                 9.5092
 Frc consts  --      0.1441                 0.6402                 1.7669
 IR Inten    --    235.9575                 3.2164                 4.9150

                      4                      5                      6
                     A'                     A'                     A'
 Frequencies --   1269.0659              2078.3177              3354.7121
 Red. masses --      7.8584                 9.8179                 1.1057
 Frc consts  --      7.4568                24.9858                 7.3317
 IR Inten    --      7.8697               335.3161                49.4052

 - Thermochemistry -
 -------------------
 Temperature   298.150 Kelvin.  Pressure   1.00000 Atm.
 Atom     1 has atomic number  6 and mass  12.00000

 Molecular mass:    41.00274 amu.
 Principal axes and moments of inertia in atomic units:
                           1         2         3
     Eigenvalues --     1.43714 164.69634 166.13348
           X            0.87235   0.48889   0.00000
           Y           -0.48889   0.87235   0.00000
           Z           -0.00000   0.00000   1.00000
 This molecule is an asymmetric top.
 Rotational symmetry number  1.
 Rotational temperatures (Kelvin)     60.26830     0.52590     0.52135
 Rotational constants (GHZ):        1255.78760    10.95799    10.86320
 Zero-point vibrational energy      49155.9 (Joules/Mol)
                                   11.74854 (Kcal/Mol)
 Warning -- explicit consideration of   3 degrees of freedom as
           vibrations may cause significant error
 Vibrational temperatures:    650.47   722.91   807.99  1825.90  2990.24
          (Kelvin)           4826.68

 Zero-point correction=                           0.018722 (Hartree/Particle)
 Thermal correction to Energy=                    0.022235
 Thermal correction to Enthalpy=                  0.023179
 Thermal correction to Gibbs Free Energy=        -0.004733
 Sum of electronic and zero-point Energies=           -151.972825
 Sum of electronic and thermal Energies=              -151.969313
 Sum of electronic and thermal Enthalpies=            -151.968368
 Sum of electronic and thermal Free Energies=         -151.996281

                     E (Thermal)             CV                S
                      KCal/Mol        Cal/Mol-Kelvin    Cal/Mol-Kelvin
 Total                   13.953              9.850             58.747
 Electronic               0.000              0.000              1.377
 Translational            0.889              2.981             37.061
 Rotational               0.889              2.981             18.315
 Vibrational             12.175              3.888              1.994
 Vibration     1          0.811              1.356              0.789
 Vibration     2          0.858              1.245              0.652
 Vibration     3          0.917              1.114              0.521

 Optimization completed.
    -- Stationary point found.
 Normal termination of Gaussian 16 at Wed Jun 15 16:49:06 2022.
