 Gaussian 16, Revision B.01,
 Gaussian 16:  ES64L-G16RevB.01 20-Dec-2017

 --------------------
 # b3lyp/gen opt freq
 --------------------

 ----------------------
 ethynol, B3LYP/pcseg-2
 ----------------------
 Symbolic Z-matrix:
 Charge =  0 Multiplicity = 1

 SCF Done:  E(RB3LYP) =  -152.611011154     A.U. after   13 cycles
 SCF Done:  E(RB3LYP) =  -152.610996387     A.U. after   10 cycles
 SCF Done:  E(RB3LYP) =  -152.610910187     A.U. after   11 cycles
 SCF Done:  E(RB3LYP) =  -152.610881082     A.U. after   10 cycles
 SCF Done:  E(RB3LYP) =  -152.611022139     A.U. after    6 cycles
 SCF Done:  E(RB3LYP) =  -152.611039457     A.U. after    8 cycles
 SCF Done:  E(RB3LYP) =  -152.611039429     A.U. after    7 cycles
 Optimization completed.
    -- Stationary point found.
 Normal termination of Gaussian 16 at Sat Jun 18 12:38:43 2022.

 ------------------------------------------------------------------
 #N Geom=AllCheck Guess=TCheck SCRF=Check GenChk RB3LYP/ChkBas Freq
 ------------------------------------------------------------------

 Structure from the checkpoint file:  "/wrk/irikura/Gau-12781.chk"
 ----------------------
 ethynol, B3LYP/pcseg-2
 ----------------------
 Charge =  0 Multiplicity = 1

                         Standard orientation:
 ---------------------------------------------------------------------
 Center     Atomic      Atomic             Coordinates (Angstroms)
 Number     Number       Type             X           Y           Z
 ---------------------------------------------------------------------
      1          6           0        0.062309    1.318390   -0.000000
      2          6           0       -0.000000    0.123249   -0.000000
      3          8           0       -0.150365   -1.175860    0.000000
      4          1           0        0.123059    2.376313   -0.000000
      5          1           0        0.706003   -1.619266    0.000000
 ---------------------------------------------------------------------

 SCF Done:  E(RB3LYP) =  -152.611039429     A.U. after    1 cycles

 The electronic state is 1-A'.
 Alpha  occ. eigenvalues --  -19.20436 -10.23316 -10.16392  -1.11223  -0.75358
 Alpha  occ. eigenvalues --   -0.63482  -0.52239  -0.47603  -0.43620  -0.28227
 Alpha  occ. eigenvalues --   -0.26167
 Alpha virt. eigenvalues --   -0.01453   0.04211   0.05094   0.06539   0.11383
 Alpha virt. eigenvalues --    0.15769   0.17311   0.18412   0.22319   0.23253
 Alpha virt. eigenvalues --    0.25843   0.30609   0.33808   0.34364   0.42293

 Mulliken charges:
               1
     1  C   -0.160528
     2  C    0.197437
     3  O   -0.328160
     4  H    0.060370
     5  H    0.230881
 Sum of Mulliken charges =   0.00000

 Dipole moment (field-independent basis, Debye):
    X=              1.5245    Y=             -0.8118    Z=              0.0000  Tot=              1.7272
 Quadrupole moment (field-independent basis, Debye-Ang):
   XX=            -17.4441   YY=            -12.4907   ZZ=            -18.9798
   XY=             -2.6880   XZ=             -0.0000   YZ=             -0.0000

  Exact polarizability:  17.388   0.125  40.561   0.000   0.000  16.775
 Approx polarizability:  22.895   1.257  68.072   0.000  -0.000  21.099

                      1                      2                      3
                     A'                     A"                     A"
 Frequencies --    398.8358               439.5001               550.1485
 Red. masses --      4.9746                 9.7073                 1.1585
 Frc consts  --      0.4662                 1.1048                 0.2066
 IR Inten    --     12.3871                 3.6919                72.9104

                      4                      5                      6
                     A'                     A'                     A'
 Frequencies --    651.6702              1083.9903              1249.3133
 Red. masses --      1.1913                 9.3932                 1.1772
 Frc consts  --      0.2981                 6.5030                 1.0825
 IR Inten    --     55.0130               101.9784                85.9606

                      7                      8                      9
                     A'                     A'                     A'
 Frequencies --   2278.2235              3487.5572              3773.6123
 Red. masses --      6.1393                 1.1592                 1.0661
 Frc consts  --     18.7742                 8.3074                 8.9444
 IR Inten    --    160.7357                97.8788               114.5896

 - Thermochemistry -
 -------------------
 Temperature   298.150 Kelvin.  Pressure   1.00000 Atm.
 Atom     1 has atomic number  6 and mass  12.00000

 Molecular mass:    42.01056 amu.
 Principal axes and moments of inertia in atomic units:
                           1         2         3
     Eigenvalues --     2.63967 184.43248 187.07215
           X            0.05788   0.99832   0.00000
           Y            0.99832  -0.05788   0.00000
           Z            0.00000   0.00000   1.00000
 This molecule is an asymmetric top.
 Rotational symmetry number  1.
 Rotational temperatures (Kelvin)     32.81235     0.46962     0.46300
 Rotational constants (GHZ):         683.69840     9.78538     9.64730
 Zero-point vibrational energy      83217.3 (Joules/Mol)
                                   19.88942 (Kcal/Mol)
 Warning -- explicit consideration of   3 degrees of freedom as
           vibrations may cause significant error
 Vibrational temperatures:    573.84   632.34   791.54   937.61  1559.62
          (Kelvin)           1797.48  3277.86  5017.82  5429.39

 Zero-point correction=                           0.031696 (Hartree/Particle)
 Thermal correction to Energy=                    0.035475
 Thermal correction to Enthalpy=                  0.036420
 Thermal correction to Gibbs Free Energy=         0.008344
 Sum of electronic and zero-point Energies=           -152.579344
 Sum of electronic and thermal Energies=              -152.575564
 Sum of electronic and thermal Enthalpies=            -152.574620
 Sum of electronic and thermal Free Energies=         -152.602696

                     E (Thermal)             CV                S
                      KCal/Mol        Cal/Mol-Kelvin    Cal/Mol-Kelvin
 Total                   22.261             11.355             59.091
 Electronic               0.000              0.000              0.000
 Translational            0.889              2.981             37.133
 Rotational               0.889              2.981             19.149
 Vibrational             20.484              5.393              2.808
 Vibration     1          0.765              1.473              0.967
 Vibration     2          0.800              1.384              0.828
 Vibration     3          0.905              1.139              0.544

 Optimization completed.
    -- Stationary point found.
 Normal termination of Gaussian 16 at Sat Jun 18 12:38:58 2022.
