 Gaussian 16, Revision B.01,

 ---------------------------------------
 # b3lyp/gen opt freq CPHF(Grid=OneStep)
 ---------------------------------------

 ----------------------
 ketenyl, B3LYP/pcseg-2
 ----------------------
 Symbolic Z-matrix:
 Charge =  0 Multiplicity = 2

 SCF Done:  E(UB3LYP) =  -151.991547438     A.U. after   16 cycles
 Optimization completed.
    -- Stationary point found.
 Normal termination of Gaussian 16 at Fri Sep 29 22:46:12 2023.

 ------------------------------------------------------------------
 #N Geom=AllCheck Guess=TCheck SCRF=Check GenChk UB3LYP/ChkBas Freq
 ------------------------------------------------------------------

 Structure from the checkpoint file:  "hcco.chk"
 ----------------------
 ketenyl, B3LYP/pcseg-2
 ----------------------
 Charge =  0 Multiplicity = 2

 SCF Done:  E(UB3LYP) =  -151.991547438     A.U. after    1 cycles

  Exact polarizability:  34.500 -11.598  25.112   0.000   0.000  16.991
 Approx polarizability:  59.742 -27.412  41.776  -0.000  -0.000  19.446

                      1                      2                      3
                     A'                     A"                     A'
 Frequencies --    452.0999               502.4598               561.5780
 Red. masses --      1.1965                 4.3038                 9.5083
 Frc consts  --      0.1441                 0.6402                 1.7668
 IR Inten    --    235.9530                 3.2221                 4.9139

                      4                      5                      6
                     A'                     A'                     A'
 Frequencies --   1269.0651              2078.3219              3354.7124
 Red. masses --      7.8584                 9.8180                 1.1057
 Frc consts  --      7.4567                24.9861                 7.3317
 IR Inten    --      7.8705               335.3243                49.4036

 - Thermochemistry -
 -------------------
 Temperature   298.150 Kelvin.  Pressure   1.00000 Atm.
 Atom     1 has atomic number  6 and mass  12.00000

 Molecular mass:    41.00274 amu.
 Principal axes and moments of inertia in atomic units:
                           1         2         3
     Eigenvalues --     1.43714 164.69635 166.13349
           X            0.87235   0.48889   0.00000
           Y           -0.48889   0.87235   0.00000
           Z           -0.00000   0.00000   1.00000
 This molecule is an asymmetric top.
 Rotational symmetry number  1.
 Rotational temperatures (Kelvin)     60.26819     0.52590     0.52135
 Rotational constants (GHZ):        1255.78519    10.95799    10.86320
 Zero-point vibrational energy      49156.0 (Joules/Mol)
                                   11.74856 (Kcal/Mol)
 Warning -- explicit consideration of   3 degrees of freedom as
           vibrations may cause significant error
 Vibrational temperatures:    650.47   722.93   807.99  1825.90  2990.24
          (Kelvin)           4826.68

 Zero-point correction=                           0.018723 (Hartree/Particle)
 Thermal correction to Energy=                    0.022235
 Thermal correction to Enthalpy=                  0.023179
 Thermal correction to Gibbs Free Energy=        -0.004733
 Sum of electronic and zero-point Energies=           -151.972825
 Sum of electronic and thermal Energies=              -151.969313
 Sum of electronic and thermal Enthalpies=            -151.968368
 Sum of electronic and thermal Free Energies=         -151.996281

                     E (Thermal)             CV                S
                      KCal/Mol        Cal/Mol-Kelvin    Cal/Mol-Kelvin
 Total                   13.953              9.850             58.747
 Electronic               0.000              0.000              1.377
 Translational            0.889              2.981             37.061
 Rotational               0.889              2.981             18.315
 Vibrational             12.175              3.888              1.994
 Vibration     1          0.811              1.356              0.789
 Vibration     2          0.858              1.245              0.652
 Vibration     3          0.917              1.114              0.521

 Optimization completed.
    -- Stationary point found.
 Normal termination of Gaussian 16 at Fri Sep 29 22:46:53 2023.
 Gaussian 16:  ES64L-G16RevB.01 20-Dec-2017

 ---------------------------------
 # rohf/gen geom=check guess=check
 ---------------------------------

 -------------------------
 ketenyl, ROHF/cc-pVTZ-F12
 -------------------------
 Structure from the checkpoint file:  "hcco.chk"
 Charge =  0 Multiplicity = 2

                         Standard orientation:
 ---------------------------------------------------------------------
 Center     Atomic      Atomic             Coordinates (Angstroms)
 Number     Number       Type             X           Y           Z
 ---------------------------------------------------------------------
      1          6           0        0.000000    0.044411    0.000000
      2          6           0        1.047847   -0.698977    0.000000
      3          8           0       -1.049847    0.564686    0.000000
      4          1           0        2.111693   -0.590087    0.000000
 ---------------------------------------------------------------------

 SCF Done:  E(ROHF) =  -151.143002035     A.U. after   15 cycles

 The electronic state is 2-A".
 Alpha  occ. eigenvalues --  -20.63112 -11.39205 -11.27464  -1.46903  -1.04248
 Alpha  occ. eigenvalues --   -0.75781  -0.70436  -0.63661  -0.60868  -0.39288
 Alpha  occ. eigenvalues --   -0.13674
 Alpha virt. eigenvalues --    0.04390   0.05889   0.07400   0.07454   0.09242
 Alpha virt. eigenvalues --    0.09680   0.10361   0.15973   0.18805   0.19502
 Alpha virt. eigenvalues --    0.20074   0.22314   0.23427   0.23766   0.28459

 Mulliken charges and spin densities:
               1          2
     1  C    0.381215   0.209616
     2  C   -0.141058   0.659376
     3  O   -0.426951   0.116237
     4  H    0.186795   0.014771
 Sum of Mulliken charges =  -0.00000   1.00000

 Dipole moment (field-independent basis, Debye):
    X=              2.1687    Y=              0.1611    Z=              0.0000  Tot=              2.1747
 Quadrupole moment (field-independent basis, Debye-Ang):
   XX=            -15.5430   YY=            -19.5588   ZZ=            -16.4759
   XY=              0.9389   XZ=              0.0000   YZ=              0.0000

 Normal termination of Gaussian 16 at Fri Sep 29 22:47:03 2023.
