 Gaussian 16, Revision B.01,
 Gaussian 16:  ES64L-G16RevB.01 20-Dec-2017

 --------------------
 # b3lyp/gen opt freq
 --------------------

 ------------------
 HCl, B3LYP/pcseg-2
 ------------------
 Symbolic Z-matrix:
 Charge =  0 Multiplicity = 1

 SCF Done:  E(RB3LYP) =  -460.846075826     A.U. after    8 cycles
 SCF Done:  E(RB3LYP) =  -460.846256702     A.U. after    8 cycles
 Optimization completed.
    -- Stationary point found.
 Normal termination of Gaussian 16 at Fri Feb  4 08:43:10 2022.

 ------------------------------------------------------------------
 #N Geom=AllCheck Guess=TCheck SCRF=Check GenChk RB3LYP/ChkBas Freq
 ------------------------------------------------------------------

 Structure from the checkpoint file:  "/wrk/irikura/Gau-24892.chk"
 ------------------
 HCl, B3LYP/pcseg-2
 ------------------
 Charge =  0 Multiplicity = 1

                         Standard orientation:
 ---------------------------------------------------------------------
 Center     Atomic      Atomic             Coordinates (Angstroms)
 Number     Number       Type             X           Y           Z
 ---------------------------------------------------------------------
      1         17           0        0.000000    0.000000    0.071201
      2          1           0        0.000000    0.000000   -1.210421
 ---------------------------------------------------------------------

 SCF Done:  E(RB3LYP) =  -460.846256702     A.U. after    1 cycles

 The electronic state is 1-SG.
 Alpha  occ. eigenvalues -- -101.52023  -9.46661  -7.22797  -7.21931  -7.21931
 Alpha  occ. eigenvalues --   -0.84947  -0.47692  -0.33731  -0.33731
 Alpha virt. eigenvalues --   -0.00999   0.11765   0.30539   0.30848   0.30848
 Alpha virt. eigenvalues --    0.44053   0.44053   0.56163   0.56163   0.61189
 Alpha virt. eigenvalues --    0.75886   0.96037   0.96037   1.23672   1.52525

 Mulliken charges:
               1
     1  Cl  -0.169073
     2  H    0.169073
 Sum of Mulliken charges =  -0.00000

 Dipole moment (field-independent basis, Debye):
    X=              0.0000    Y=              0.0000    Z=             -1.2573  Tot=              1.2573
 Quadrupole moment (field-independent basis, Debye-Ang):
   XX=            -14.0195   YY=            -14.0195   ZZ=            -10.4551
   XY=              0.0000   XZ=              0.0000   YZ=              0.0000

  Exact polarizability:   9.184   0.000   9.184   0.000  -0.000  14.213
 Approx polarizability:  12.189  -0.000  12.189  -0.000  -0.000  21.940

                      1
                     SG
 Frequencies --   2934.6996
 Red. masses --      1.0360
 Frc consts  --      5.2570
 IR Inten    --     38.1571

 - Thermochemistry -
 -------------------
 Temperature   298.150 Kelvin.  Pressure   1.00000 Atm.
 Atom     1 has atomic number 17 and mass  34.96885

 Molecular mass:    35.97668 amu.
 Principal axes and moments of inertia in atomic units:
                           1         2         3
     Eigenvalues --     0.00000   5.74597   5.74597
           X            0.00000  -0.00000   1.00000
           Y            0.00000   1.00000   0.00000
           Z            1.00000   0.00000   0.00000
 This molecule is a prolate symmetric top.
 Rotational symmetry number  1.
 Rotational temperature (Kelvin)     15.07386
 Rotational constant (GHZ):         314.088326
 Zero-point vibrational energy      17553.4 (Joules/Mol)
                                    4.19536 (Kcal/Mol)
 Vibrational temperatures:   4222.38
          (Kelvin)

 Zero-point correction=                           0.006686 (Hartree/Particle)
 Thermal correction to Energy=                    0.009046
 Thermal correction to Enthalpy=                  0.009990
 Thermal correction to Gibbs Free Energy=        -0.011195
 Sum of electronic and zero-point Energies=           -460.839571
 Sum of electronic and thermal Energies=              -460.837210
 Sum of electronic and thermal Enthalpies=            -460.836266
 Sum of electronic and thermal Free Energies=         -460.857452

                     E (Thermal)             CV                S
                      KCal/Mol        Cal/Mol-Kelvin    Cal/Mol-Kelvin
 Total                    5.677              4.968             44.589
 Electronic               0.000              0.000              0.000
 Translational            0.889              2.981             36.671
 Rotational               0.592              1.987              7.918
 Vibrational              4.195              0.000              0.000

 Optimization completed.
    -- Stationary point found.
 Normal termination of Gaussian 16 at Fri Feb  4 08:43:16 2022.
