 Gaussian 16, Revision B.01,
 Gaussian 16:  ES64L-G16RevB.01 20-Dec-2017

 --------------------
 # b3lyp/gen opt freq
 --------------------

 ------------------------------
 perchloric acid, B3LYP/pcseg-2
 ------------------------------
 Symbolic Z-matrix:
 Charge =  0 Multiplicity = 1

 SCF Done:  E(RB3LYP) =  -761.542063447     A.U. after   14 cycles
 SCF Done:  E(RB3LYP) =  -761.547094257     A.U. after   12 cycles
 SCF Done:  E(RB3LYP) =  -761.548559694     A.U. after   11 cycles
 SCF Done:  E(RB3LYP) =  -761.548623367     A.U. after    9 cycles
 SCF Done:  E(RB3LYP) =  -761.548646941     A.U. after    9 cycles
 SCF Done:  E(RB3LYP) =  -761.548648442     A.U. after    8 cycles
 Optimization completed.
    -- Stationary point found.
 Normal termination of Gaussian 16 at Fri Jun 17 13:48:10 2022.

 ------------------------------------------------------------------
 #N Geom=AllCheck Guess=TCheck SCRF=Check GenChk RB3LYP/ChkBas Freq
 ------------------------------------------------------------------

 Structure from the checkpoint file:  "/wrk/irikura/Gau-973.chk"
 ------------------------------
 perchloric acid, B3LYP/pcseg-2
 ------------------------------
 Charge =  0 Multiplicity = 1

                         Standard orientation:
 ---------------------------------------------------------------------
 Center     Atomic      Atomic             Coordinates (Angstroms)
 Number     Number       Type             X           Y           Z
 ---------------------------------------------------------------------
      1         17           0       -0.143219    0.009250    0.000000
      2          8           0       -0.481376    1.387245    0.000000
      3          8           0        1.520306    0.089565    0.000000
      4          8           0       -0.481376   -0.696157    1.195576
      5          8           0       -0.481376   -0.696157   -1.195576
      6          1           0        1.825297   -0.833214    0.000000
 ---------------------------------------------------------------------

 SCF Done:  E(RB3LYP) =  -761.548648442     A.U. after    1 cycles

 The electronic state is 1-A'.
 Alpha  occ. eigenvalues -- -101.91676 -19.23643 -19.20999 -19.20851 -19.20850
 Alpha  occ. eigenvalues --   -9.80458  -7.56730  -7.56535  -7.56531  -1.34585
 Alpha  occ. eigenvalues --   -1.12975  -1.12386  -1.10737  -0.75009  -0.65167
 Alpha  occ. eigenvalues --   -0.59560  -0.59282  -0.52592  -0.45180  -0.44624
 Alpha  occ. eigenvalues --   -0.44190  -0.42729  -0.39328  -0.37009  -0.35341
 Alpha virt. eigenvalues --   -0.06803  -0.02288   0.00953   0.05284   0.05834
 Alpha virt. eigenvalues --    0.22616   0.23376   0.23961   0.24305   0.29439
 Alpha virt. eigenvalues --    0.30489   0.30567   0.31814   0.32734   0.32853

 Mulliken charges:
               1
     1  Cl   0.961066
     2  O   -0.299906
     3  O   -0.250625
     4  O   -0.316065
     5  O   -0.316065
     6  H    0.221594
 Sum of Mulliken charges =  -0.00000

 Dipole moment (field-independent basis, Debye):
    X=              1.8829    Y=             -1.4292    Z=              0.0000  Tot=              2.3639
 Quadrupole moment (field-independent basis, Debye-Ang):
   XX=            -31.6534   YY=            -35.4886   ZZ=            -37.4358
   XY=             -3.4739   XZ=              0.0000   YZ=             -0.0000

  Exact polarizability:  32.798  -0.811  33.029   0.000  -0.000  31.567
 Approx polarizability:  49.801  -0.044  56.539  -0.000   0.000  53.388

                      1                      2                      3
                     A"                     A'                     A"
 Frequencies --    162.9719               399.6097               410.1110
 Red. masses --      1.1145                 8.3483                 9.3686
 Frc consts  --      0.0174                 0.7855                 0.9284
 IR Inten    --     85.8004                 4.6971                13.4458

                      4                      5                      6
                     A'                     A'                     A"
 Frequencies --    535.7138               561.7467               568.5451
 Red. masses --     11.0907                12.9500                17.7495
 Frc consts  --      1.8753                 2.4077                 3.3804
 IR Inten    --      2.9251                22.7112                27.2466

                      7                      8                      9
                     A'                     A'                     A'
 Frequencies --    707.7871              1024.5185              1194.0719
 Red. masses --     20.1988                16.8456                 1.7010
 Frc consts  --      5.9618                10.4178                 1.4290
 IR Inten    --    195.7059                97.1887               106.4245

                     10                     11                     12
                     A"                     A'                     A'
 Frequencies --   1233.8677              1309.0441              3713.3081
 Red. masses --     20.7135                 2.9725                 1.0664
 Frc consts  --     18.5798                 3.0011                 8.6632
 IR Inten    --    293.0925               223.3836               126.8429

 - Thermochemistry -
 -------------------
 Temperature   298.150 Kelvin.  Pressure   1.00000 Atm.
 Atom     1 has atomic number 17 and mass  34.96885

 Molecular mass:    99.95634 amu.
 Principal axes and moments of inertia in atomic units:
                           1         2         3
     Eigenvalues --   331.22042 349.73540 354.37256
           X            0.99188  -0.12721   0.00000
           Y            0.12721   0.99188   0.00000
           Z            0.00000   0.00000   1.00000
 This molecule is an asymmetric top.
 Rotational symmetry number  1.
 Rotational temperatures (Kelvin)      0.26150     0.24766     0.24441
 Rotational constants (GHZ):           5.44876     5.16030     5.09278
 Zero-point vibrational energy      70707.0 (Joules/Mol)
                                   16.89939 (Kcal/Mol)
 Warning -- explicit consideration of   6 degrees of freedom as
           vibrations may cause significant error
 Vibrational temperatures:    234.48   574.95   590.06   770.77   808.23
          (Kelvin)            818.01  1018.35  1474.05  1718.00  1775.26
                             1883.42  5342.62

 Zero-point correction=                           0.026931 (Hartree/Particle)
 Thermal correction to Energy=                    0.031739
 Thermal correction to Enthalpy=                  0.032683
 Thermal correction to Gibbs Free Energy=        -0.001256
 Sum of electronic and zero-point Energies=           -761.521718
 Sum of electronic and thermal Energies=              -761.516909
 Sum of electronic and thermal Enthalpies=            -761.515965
 Sum of electronic and thermal Free Energies=         -761.549905

                     E (Thermal)             CV                S
                      KCal/Mol        Cal/Mol-Kelvin    Cal/Mol-Kelvin
 Total                   19.916             15.855             71.431
 Electronic               0.000              0.000              0.000
 Translational            0.889              2.981             39.717
 Rotational               0.889              2.981             25.221
 Vibrational             18.139              9.893              6.494
 Vibration     1          0.623              1.888              2.515
 Vibration     2          0.766              1.471              0.964
 Vibration     3          0.774              1.448              0.926
 Vibration     4          0.891              1.171              0.575
 Vibration     5          0.917              1.114              0.520
 Vibration     6          0.925              1.099              0.507

 Optimization completed.
    -- Stationary point found.
 Normal termination of Gaussian 16 at Fri Jun 17 13:48:43 2022.
