 Gaussian 16, Revision B.01,

 ---------------------------------------
 # b3lyp/gen opt freq CPHF(Grid=OneStep)
 ---------------------------------------

 -------------------
 HClO, B3LYP/pcseg-2
 -------------------
 Symbolic Z-matrix:
 Charge =  0 Multiplicity = 1

 SCF Done:  E(RB3LYP) =  -535.945047885     A.U. after   13 cycles
 Optimization completed.
    -- Stationary point found.
 Normal termination of Gaussian 16 at Sat Sep 30 03:25:05 2023.

 ------------------------------------------------------------------
 #N Geom=AllCheck Guess=TCheck SCRF=Check GenChk RB3LYP/ChkBas Freq
 ------------------------------------------------------------------

 Structure from the checkpoint file:  "hclo.chk"
 -------------------
 HClO, B3LYP/pcseg-2
 -------------------
 Charge =  0 Multiplicity = 1

 SCF Done:  E(RB3LYP) =  -535.945047885     A.U. after    1 cycles

  Exact polarizability:  16.954   3.677  25.899   0.000   0.000  11.478
 Approx polarizability:  25.664   7.615  44.965  -0.000  -0.000  15.449

                      1                      2                      3
                     A'                     A'                     A'
 Frequencies --    763.6538               971.5215              2510.2901
 Red. masses --     17.0705                 1.1082                 1.0375
 Frc consts  --      5.8653                 0.6163                 3.8519
 IR Inten    --     31.2691                 1.8073                27.2392

 - Thermochemistry -
 -------------------
 Temperature   298.150 Kelvin.  Pressure   1.00000 Atm.
 Atom     1 has atomic number 17 and mass  34.96885

 Molecular mass:    51.97159 amu.
 Principal axes and moments of inertia in atomic units:
                           1         2         3
     Eigenvalues --     5.39704 100.56430 105.96133
           X            0.04239   0.99910   0.00000
           Y            0.99910  -0.04239   0.00000
           Z            0.00000  -0.00000   1.00000
 This molecule is an asymmetric top.
 Rotational symmetry number  1.
 Rotational temperatures (Kelvin)     16.04842     0.86128     0.81741
 Rotational constants (GHZ):         334.39479    17.94614    17.03207
 Zero-point vibrational energy      25393.5 (Joules/Mol)
                                    6.06920 (Kcal/Mol)
 Vibrational temperatures:   1098.73  1397.80  3611.75
          (Kelvin)

 Zero-point correction=                           0.009672 (Hartree/Particle)
 Thermal correction to Energy=                    0.012635
 Thermal correction to Enthalpy=                  0.013579
 Thermal correction to Gibbs Free Energy=        -0.013410
 Sum of electronic and zero-point Energies=           -535.935376
 Sum of electronic and thermal Energies=              -535.932413
 Sum of electronic and thermal Enthalpies=            -535.931469
 Sum of electronic and thermal Free Energies=         -535.958458

                     E (Thermal)             CV                S
                      KCal/Mol        Cal/Mol-Kelvin    Cal/Mol-Kelvin
 Total                    7.929              7.085             56.804
 Electronic               0.000              0.000              0.000
 Translational            0.889              2.981             37.767
 Rotational               0.889              2.981             18.692
 Vibrational              6.151              1.124              0.344

 Optimization completed.
    -- Stationary point found.
 Normal termination of Gaussian 16 at Sat Sep 30 03:25:17 2023.
 Gaussian 16:  ES64L-G16RevB.01 20-Dec-2017

 ---------------------------------
 # rohf/gen geom=check guess=check
 ---------------------------------

 ----------------------
 HClO, ROHF/cc-pVTZ-F12
 ----------------------
 Structure from the checkpoint file:  "hclo.chk"
 Charge =  0 Multiplicity = 1

                         Standard orientation:
 ---------------------------------------------------------------------
 Center     Atomic      Atomic             Coordinates (Angstroms)
 Number     Number       Type             X           Y           Z
 ---------------------------------------------------------------------
      1         17           0        0.048310   -0.469315    0.000000
      2          8           0        0.048310    1.107745    0.000000
      3          1           0       -1.207756   -0.883598    0.000000
 ---------------------------------------------------------------------

 SCF Done:  E(ROHF) =  -534.839198485     A.U. after   13 cycles

 The electronic state is 1-A'.
 Alpha  occ. eigenvalues -- -104.97274 -20.55053 -10.68874  -8.15604  -8.15477
 Alpha  occ. eigenvalues --   -8.15420  -1.37244  -1.07885  -0.70575  -0.61469
 Alpha  occ. eigenvalues --   -0.59292  -0.45541  -0.41662
 Alpha virt. eigenvalues --    0.04981   0.06988   0.08653   0.08770   0.13297
 Alpha virt. eigenvalues --    0.17720   0.18182   0.18937   0.19312   0.33772
 Alpha virt. eigenvalues --    0.33812   0.35722   0.36270   0.42206   0.43801

 Mulliken charges and spin densities:
               1          2
     1  Cl   0.474815   0.000000
     2  O   -0.639704   0.000000
     3  H    0.164889   0.000000
 Sum of Mulliken charges =   0.00000   0.00000

 Dipole moment (field-independent basis, Debye):
    X=             -1.3255    Y=             -3.7468    Z=              0.0000  Tot=              3.9744
 Quadrupole moment (field-independent basis, Debye-Ang):
   XX=            -15.7159   YY=            -20.0063   ZZ=            -18.9724
   XY=              1.4304   XZ=              0.0000   YZ=              0.0000

 Normal termination of Gaussian 16 at Sat Sep 30 03:25:21 2023.
