 Gaussian 16, Revision B.01,
 Gaussian 16:  ES64L-G16RevB.01 20-Dec-2017

 --------------------
 # b3lyp/gen opt freq
 --------------------

 -------------------
 HClO, B3LYP/pcseg-2
 -------------------
 Symbolic Z-matrix:
 Charge =  0 Multiplicity = 1

 SCF Done:  E(RB3LYP) =  -535.944926399     A.U. after   13 cycles
 SCF Done:  E(RB3LYP) =  -535.945031844     A.U. after   10 cycles
 SCF Done:  E(RB3LYP) =  -535.945045241     A.U. after    9 cycles
 SCF Done:  E(RB3LYP) =  -535.945047885     A.U. after    8 cycles
 Optimization completed.
    -- Stationary point found.
 Normal termination of Gaussian 16 at Fri Jun 17 15:05:43 2022.

 ------------------------------------------------------------------
 #N Geom=AllCheck Guess=TCheck SCRF=Check GenChk RB3LYP/ChkBas Freq
 ------------------------------------------------------------------

 Structure from the checkpoint file:  "/wrk/irikura/Gau-11071.chk"
 -------------------
 HClO, B3LYP/pcseg-2
 -------------------
 Charge =  0 Multiplicity = 1

                         Standard orientation:
 ---------------------------------------------------------------------
 Center     Atomic      Atomic             Coordinates (Angstroms)
 Number     Number       Type             X           Y           Z
 ---------------------------------------------------------------------
      1         17           0        0.048310   -0.469315   -0.000000
      2          8           0        0.048310    1.107745    0.000000
      3          1           0       -1.207756   -0.883598   -0.000000
 ---------------------------------------------------------------------

 SCF Done:  E(RB3LYP) =  -535.945047885     A.U. after    1 cycles

 The electronic state is 1-A'.
 Alpha  occ. eigenvalues -- -101.64436 -19.11737  -9.57986  -7.34171  -7.33703
 Alpha  occ. eigenvalues --   -7.33022  -1.05497  -0.81535  -0.54245  -0.45164
 Alpha  occ. eigenvalues --   -0.44303  -0.28968  -0.25236
 Alpha virt. eigenvalues --   -0.04712  -0.04235   0.11064   0.24866   0.27038
 Alpha virt. eigenvalues --    0.29823   0.34476   0.36987   0.37478   0.39498
 Alpha virt. eigenvalues --    0.48082   0.50414   0.53673   0.58016   0.71059

 Mulliken charges:
               1
     1  Cl   0.401403
     2  O   -0.551621
     3  H    0.150218
 Sum of Mulliken charges =   0.00000

 Dipole moment (field-independent basis, Debye):
    X=             -1.2029    Y=             -3.7552    Z=             -0.0000  Tot=              3.9432
 Quadrupole moment (field-independent basis, Debye-Ang):
   XX=            -16.0998   YY=            -20.0275   ZZ=            -19.0200
   XY=              1.1142   XZ=              0.0000   YZ=             -0.0000

  Exact polarizability:  16.954   3.677  25.899  -0.000  -0.000  11.478
 Approx polarizability:  25.664   7.615  44.965   0.000   0.000  15.449

                      1                      2                      3
                     A'                     A'                     A'
 Frequencies --    763.6330               971.5178              2510.2874
 Red. masses --     17.0697                 1.1082                 1.0375
 Frc consts  --      5.8647                 0.6163                 3.8518
 IR Inten    --     31.2725                 1.8060                27.2403

 - Thermochemistry -
 -------------------
 Temperature   298.150 Kelvin.  Pressure   1.00000 Atm.
 Atom     1 has atomic number 17 and mass  34.96885

 Molecular mass:    51.97159 amu.
 Principal axes and moments of inertia in atomic units:
                           1         2         3
     Eigenvalues --     5.39704 100.56433 105.96137
           X            0.04239   0.99910   0.00000
           Y            0.99910  -0.04239   0.00000
           Z            0.00000   0.00000   1.00000
 This molecule is an asymmetric top.
 Rotational symmetry number  1.
 Rotational temperatures (Kelvin)     16.04842     0.86128     0.81741
 Rotational constants (GHZ):         334.39487    17.94614    17.03207
 Zero-point vibrational energy      25393.4 (Joules/Mol)
                                    6.06916 (Kcal/Mol)
 Vibrational temperatures:   1098.70  1397.80  3611.74
          (Kelvin)

 Zero-point correction=                           0.009672 (Hartree/Particle)
 Thermal correction to Energy=                    0.012635
 Thermal correction to Enthalpy=                  0.013579
 Thermal correction to Gibbs Free Energy=        -0.013410
 Sum of electronic and zero-point Energies=           -535.935376
 Sum of electronic and thermal Energies=              -535.932413
 Sum of electronic and thermal Enthalpies=            -535.931469
 Sum of electronic and thermal Free Energies=         -535.958458

                     E (Thermal)             CV                S
                      KCal/Mol        Cal/Mol-Kelvin    Cal/Mol-Kelvin
 Total                    7.929              7.085             56.804
 Electronic               0.000              0.000              0.000
 Translational            0.889              2.981             37.767
 Rotational               0.889              2.981             18.692
 Vibrational              6.151              1.124              0.344

 Optimization completed.
    -- Stationary point found.
 Normal termination of Gaussian 16 at Fri Jun 17 15:05:50 2022.
