 Gaussian 16, Revision B.01,
 Gaussian 16:  ES64L-G16RevB.01 20-Dec-2017

 --------------------
 # b3lyp/gen opt freq
 --------------------

 ------------------
 HCN, B3LYP/pcseg-2
 ------------------
 Symbolic Z-matrix:
 Charge =  0 Multiplicity = 1

 SCF Done:  E(RB3LYP) =  -93.4547303763     A.U. after   10 cycles
 SCF Done:  E(RB3LYP) =  -93.4644430407     A.U. after   10 cycles
 SCF Done:  E(RB3LYP) =  -93.4644489881     A.U. after    7 cycles
 SCF Done:  E(RB3LYP) =  -93.4644491778     A.U. after    6 cycles
 Optimization completed.
    -- Stationary point found.
 Normal termination of Gaussian 16 at Wed Feb  2 17:38:06 2022.

 ------------------------------------------------------------------
 #N Geom=AllCheck Guess=TCheck SCRF=Check GenChk RB3LYP/ChkBas Freq
 ------------------------------------------------------------------

 Structure from the checkpoint file:  "/wrk/irikura/Gau-13981.chk"
 ------------------
 HCN, B3LYP/pcseg-2
 ------------------
 Charge =  0 Multiplicity = 1

                         Standard orientation:
 ---------------------------------------------------------------------
 Center     Atomic      Atomic             Coordinates (Angstroms)
 Number     Number       Type             X           Y           Z
 ---------------------------------------------------------------------
      1          1           0        0.000000    0.000000   -1.562615
      2          6           0        0.000000    0.000000   -0.496760
      3          7           0        0.000000    0.000000    0.649025
 ---------------------------------------------------------------------

 SCF Done:  E(RB3LYP) =  -93.4644491778     A.U. after    1 cycles

 The electronic state is 1-SG.
 Alpha  occ. eigenvalues --  -14.34303 -10.22952  -0.93307  -0.61596  -0.39251
 Alpha  occ. eigenvalues --   -0.37463  -0.37463
 Alpha virt. eigenvalues --   -0.00431  -0.00431   0.01809   0.07062   0.16801
 Alpha virt. eigenvalues --    0.16801   0.21883   0.30170   0.33843   0.36345
 Alpha virt. eigenvalues --    0.36345   0.57610   0.74287   0.76780   0.76780

 Mulliken charges:
               1
     1  H    0.121730
     2  C    0.035370
     3  N   -0.157100
 Sum of Mulliken charges =   0.00000

 Dipole moment (field-independent basis, Debye):
    X=              0.0000    Y=              0.0000    Z=             -3.0491  Tot=              3.0491
 Quadrupole moment (field-independent basis, Debye-Ang):
   XX=            -11.8062   YY=            -11.8062   ZZ=             -9.9310
   XY=              0.0000   XZ=              0.0000   YZ=              0.0000

  Exact polarizability:  11.087  -0.000  11.087  -0.000  -0.000  22.370
 Approx polarizability:  14.288  -0.000  14.288  -0.000  -0.000  40.129

                      1                      2                      3
                     PI                     PI                     SG
 Frequencies --    764.1017               764.1017              2201.5254
 Red. masses --      1.3446                 1.3446                 5.0876
 Frc consts  --      0.4625                 0.4625                14.5281
 IR Inten    --     39.4221                39.4221                 1.5329

                      4
                     SG
 Frequencies --   3445.0472
 Red. masses --      1.1914
 Frc consts  --      8.3309
 IR Inten    --     66.4026

 - Thermochemistry -
 -------------------
 Temperature   298.150 Kelvin.  Pressure   1.00000 Atm.
 Atom     1 has atomic number  1 and mass   1.00783

 Molecular mass:    27.01090 amu.
 Principal axes and moments of inertia in atomic units:
                           1         2         3
     Eigenvalues --     0.00000  40.10827  40.10827
           X            0.00000  -0.00000   1.00000
           Y            0.00000   1.00000   0.00000
           Z            1.00000   0.00000   0.00000
 This molecule is a prolate symmetric top.
 Rotational symmetry number  1.
 Rotational temperature (Kelvin)      2.15950
 Rotational constant (GHZ):          44.996738
 Zero-point vibrational energy      42914.7 (Joules/Mol)
                                   10.25686 (Kcal/Mol)
 Vibrational temperatures:   1099.37  1099.37  3167.50  4956.65
          (Kelvin)

 Zero-point correction=                           0.016345 (Hartree/Particle)
 Thermal correction to Energy=                    0.018885
 Thermal correction to Enthalpy=                  0.019829
 Thermal correction to Gibbs Free Energy=        -0.003012
 Sum of electronic and zero-point Energies=            -93.448104
 Sum of electronic and thermal Energies=               -93.445564
 Sum of electronic and thermal Enthalpies=             -93.444620
 Sum of electronic and thermal Free Energies=          -93.467461

                     E (Thermal)             CV                S
                      KCal/Mol        Cal/Mol-Kelvin    Cal/Mol-Kelvin
 Total                   11.850              6.397             48.074
 Electronic               0.000              0.000              0.000
 Translational            0.889              2.981             35.816
 Rotational               0.592              1.987             11.780
 Vibrational             10.369              1.429              0.478

 Optimization completed.
    -- Stationary point found.
 Normal termination of Gaussian 16 at Wed Feb  2 17:38:27 2022.
