 Gaussian 16, Revision B.01,
 Gaussian 16:  ES64L-G16RevB.01 20-Dec-2017

 --------------------
 # b3lyp/gen opt freq
 --------------------

 -----------------------------
 aminomethylene, B3LYP/pcseg-2
 -----------------------------
 Symbolic Z-matrix:
 Charge =  0 Multiplicity = 1

 SCF Done:  E(RB3LYP) =  -94.6183599340     A.U. after   12 cycles
 SCF Done:  E(RB3LYP) =  -94.6183618490     A.U. after    7 cycles
 Optimization completed.
    -- Stationary point found.
 Normal termination of Gaussian 16 at Fri Jun 17 12:36:44 2022.

 ------------------------------------------------------------------
 #N Geom=AllCheck Guess=TCheck SCRF=Check GenChk RB3LYP/ChkBas Freq
 ------------------------------------------------------------------

 Structure from the checkpoint file:  "/wrk/irikura/Gau-14494.chk"
 -----------------------------
 aminomethylene, B3LYP/pcseg-2
 -----------------------------
 Charge =  0 Multiplicity = 1

                         Standard orientation:
 ---------------------------------------------------------------------
 Center     Atomic      Atomic             Coordinates (Angstroms)
 Number     Number       Type             X           Y           Z
 ---------------------------------------------------------------------
      1          6           0        0.062469    0.784156    0.000000
      2          7           0        0.062469   -0.522196    0.000000
      3          1           0       -0.996330    1.100526    0.000000
      4          1           0       -0.757221   -1.127801    0.000000
      5          1           0        0.941457   -1.022292    0.000000
 ---------------------------------------------------------------------

 SCF Done:  E(RB3LYP) =  -94.6183618490     A.U. after    1 cycles

 The electronic state is 1-A'.
 Alpha  occ. eigenvalues --  -14.37490 -10.18991  -0.94864  -0.65041  -0.55886
 Alpha  occ. eigenvalues --   -0.43387  -0.36524  -0.21298
 Alpha virt. eigenvalues --   -0.02729  -0.00351   0.03694   0.07112   0.16353
 Alpha virt. eigenvalues --    0.19147   0.20621   0.22820   0.26832   0.31252
 Alpha virt. eigenvalues --    0.31299   0.31870   0.38071   0.40010   0.46035

 Mulliken charges:
               1
     1  C   -0.095952
     2  N   -0.215760
     3  H   -0.001812
     4  H    0.128116
     5  H    0.185408
 Sum of Mulliken charges =  -0.00000

 Dipole moment (field-independent basis, Debye):
    X=             -1.3702    Y=             -3.2192    Z=              0.0000  Tot=              3.4987
 Quadrupole moment (field-independent basis, Debye-Ang):
   XX=            -12.3008   YY=            -13.8777   ZZ=            -13.9994
   XY=             -2.4057   XZ=              0.0000   YZ=              0.0000

  Exact polarizability:  23.265   0.301  30.694   0.000  -0.000  16.207
 Approx polarizability:  29.221  -0.404  42.237  -0.000  -0.000  22.382

                      1                      2                      3
                     A"                     A'                     A"
 Frequencies --    818.2016              1075.2288              1159.0416
 Red. masses --      1.3042                 1.0670                 1.0718
 Frc consts  --      0.5144                 0.7268                 0.8483
 IR Inten    --    158.7058                26.3431                11.4815

                      4                      5                      6
                     A'                     A'                     A'
 Frequencies --   1387.5415              1436.9240              1691.2173
 Red. masses --      1.6272                 3.0835                 1.1798
 Frc consts  --      1.8457                 3.7511                 1.9882
 IR Inten    --     14.8520                15.1780                12.3770

                      7                      8                      9
                     A'                     A'                     A'
 Frequencies --   2924.9518              3374.2627              3538.1200
 Red. masses --      1.0830                 1.0563                 1.0864
 Frc consts  --      5.4591                 7.0862                 8.0131
 IR Inten    --    104.5251                21.5789                18.6412

 - Thermochemistry -
 -------------------
 Temperature   298.150 Kelvin.  Pressure   1.00000 Atm.
 Atom     1 has atomic number  6 and mass  12.00000

 Molecular mass:    29.02655 amu.
 Principal axes and moments of inertia in atomic units:
                           1         2         3
     Eigenvalues --     8.74853  52.91130  61.65982
           X           -0.09030   0.99591   0.00000
           Y            0.99591   0.09030   0.00000
           Z           -0.00000   0.00000   1.00000
 This molecule is an asymmetric top.
 Rotational symmetry number  1.
 Rotational temperatures (Kelvin)      9.90040     1.63696     1.40471
 Rotational constants (GHZ):         206.29080    34.10881    29.26932
 Zero-point vibrational energy     104107.9 (Joules/Mol)
                                   24.88240 (Kcal/Mol)
 Vibrational temperatures:   1177.21  1547.01  1667.60  1996.36  2067.41
          (Kelvin)           2433.28  4208.35  4854.81  5090.57

 Zero-point correction=                           0.039653 (Hartree/Particle)
 Thermal correction to Energy=                    0.042622
 Thermal correction to Enthalpy=                  0.043566
 Thermal correction to Gibbs Free Energy=         0.017730
 Sum of electronic and zero-point Energies=            -94.578709
 Sum of electronic and thermal Energies=               -94.575740
 Sum of electronic and thermal Enthalpies=             -94.574796
 Sum of electronic and thermal Free Energies=          -94.600632

                     E (Thermal)             CV                S
                      KCal/Mol        Cal/Mol-Kelvin    Cal/Mol-Kelvin
 Total                   26.746              7.360             54.378
 Electronic               0.000              0.000              0.000
 Translational            0.889              2.981             36.031
 Rotational               0.889              2.981             17.996
 Vibrational             24.968              1.398              0.350

 Optimization completed.
    -- Stationary point found.
 Normal termination of Gaussian 16 at Fri Jun 17 12:36:54 2022.
