 Gaussian 16, Revision B.01,

 ---------------------------------------
 # b3lyp/gen opt freq CPHF(Grid=OneStep)
 ---------------------------------------

 -----------------------------
 aminomethylene, B3LYP/pcseg-2
 -----------------------------
 Symbolic Z-matrix:
 Charge =  0 Multiplicity = 1

 SCF Done:  E(RB3LYP) =  -94.6183618490     A.U. after   12 cycles
 SCF Done:  E(RB3LYP) =  -94.6183619639     A.U. after    7 cycles
 Optimization completed.
    -- Stationary point found.
 Normal termination of Gaussian 16 at Wed Sep 27 21:36:50 2023.

 ------------------------------------------------------------------
 #N Geom=AllCheck Guess=TCheck SCRF=Check GenChk RB3LYP/ChkBas Freq
 ------------------------------------------------------------------

 Structure from the checkpoint file:  "hcnh2.chk"
 -----------------------------
 aminomethylene, B3LYP/pcseg-2
 -----------------------------
 Charge =  0 Multiplicity = 1

 SCF Done:  E(RB3LYP) =  -94.6183619639     A.U. after    1 cycles

  Exact polarizability:  23.260   0.305  30.684   0.000   0.000  16.208
 Approx polarizability:  29.217  -0.397  42.217  -0.000  -0.000  22.384

                      1                      2                      3
                     A"                     A'                     A"
 Frequencies --    818.3371              1075.6756              1158.8973
 Red. masses --      1.3042                 1.0672                 1.0717
 Frc consts  --      0.5146                 0.7275                 0.8480
 IR Inten    --    158.6660                26.2556                11.4436

                      4                      5                      6
                     A'                     A'                     A'
 Frequencies --   1388.1051              1437.9196              1691.3614
 Red. masses --      1.6250                 3.0850                 1.1806
 Frc consts  --      1.8448                 3.7582                 1.9898
 IR Inten    --     14.9141                15.1360                12.3948

                      7                      8                      9
                     A'                     A'                     A'
 Frequencies --   2927.0063              3373.8533              3538.5303
 Red. masses --      1.0829                 1.0564                 1.0864
 Frc consts  --      5.4664                 7.0849                 8.0145
 IR Inten    --    104.4744                21.5688                18.5386

 - Thermochemistry -
 -------------------
 Temperature   298.150 Kelvin.  Pressure   1.00000 Atm.
 Atom     1 has atomic number  6 and mass  12.00000

 Molecular mass:    29.02655 amu.
 Principal axes and moments of inertia in atomic units:
                           1         2         3
     Eigenvalues --     8.75122  52.88338  61.63460
           X           -0.09023   0.99592   0.00000
           Y            0.99592   0.09023   0.00000
           Z           -0.00000   0.00000   1.00000
 This molecule is an asymmetric top.
 Rotational symmetry number  1.
 Rotational temperatures (Kelvin)      9.89735     1.63783     1.40528
 Rotational constants (GHZ):         206.22739    34.12681    29.28130
 Zero-point vibrational energy     104133.0 (Joules/Mol)
                                   24.88840 (Kcal/Mol)
 Vibrational temperatures:   1177.40  1547.66  1667.39  1997.17  2068.85
          (Kelvin)           2433.49  4211.31  4854.22  5091.16

 Zero-point correction=                           0.039662 (Hartree/Particle)
 Thermal correction to Energy=                    0.042632
 Thermal correction to Enthalpy=                  0.043576
 Thermal correction to Gibbs Free Energy=         0.017740
 Sum of electronic and zero-point Energies=            -94.578700
 Sum of electronic and thermal Energies=               -94.575730
 Sum of electronic and thermal Enthalpies=             -94.574786
 Sum of electronic and thermal Free Energies=          -94.600622

                     E (Thermal)             CV                S
                      KCal/Mol        Cal/Mol-Kelvin    Cal/Mol-Kelvin
 Total                   26.752              7.359             54.377
 Electronic               0.000              0.000              0.000
 Translational            0.889              2.981             36.031
 Rotational               0.889              2.981             17.996
 Vibrational             24.974              1.397              0.350

 Optimization completed.
    -- Stationary point found.
 Normal termination of Gaussian 16 at Wed Sep 27 21:37:21 2023.
 Gaussian 16:  ES64L-G16RevB.01 20-Dec-2017

 ---------------------------------
 # rohf/gen geom=check guess=check
 ---------------------------------

 --------------------------------
 aminomethylene, ROHF/cc-pVTZ-F12
 --------------------------------
 Structure from the checkpoint file:  "hcnh2.chk"
 Charge =  0 Multiplicity = 1

                         Standard orientation:
 ---------------------------------------------------------------------
 Center     Atomic      Atomic             Coordinates (Angstroms)
 Number     Number       Type             X           Y           Z
 ---------------------------------------------------------------------
      1          6           0        0.062484    0.784127    0.000000
      2          7           0        0.062484   -0.522021    0.000000
      3          1           0       -0.996511    1.098999    0.000000
      4          1           0       -0.757269   -1.127608    0.000000
      5          1           0        0.941485   -1.022006    0.000000
 ---------------------------------------------------------------------

 SCF Done:  E(ROHF) =  -94.0252737162     A.U. after   10 cycles

 The electronic state is 1-A'.
 Alpha  occ. eigenvalues --  -15.61201 -11.24874  -1.24684  -0.85972  -0.73092
 Alpha  occ. eigenvalues --   -0.59637  -0.49304  -0.34952
 Alpha virt. eigenvalues --    0.04377   0.07355   0.07844   0.09552   0.11963
 Alpha virt. eigenvalues --    0.12432   0.12557   0.17753   0.19425   0.21799
 Alpha virt. eigenvalues --    0.24704   0.27301   0.36061   0.40205   0.41142

 Mulliken charges and spin densities:
               1          2
     1  C   -0.095310   0.000000
     2  N   -0.551501   0.000000
     3  H    0.052342   0.000000
     4  H    0.279978   0.000000
     5  H    0.314491   0.000000
 Sum of Mulliken charges =  -0.00000   0.00000

 Dipole moment (field-independent basis, Debye):
    X=             -1.4310    Y=             -3.0629    Z=              0.0000  Tot=              3.3808
 Quadrupole moment (field-independent basis, Debye-Ang):
   XX=            -12.1741   YY=            -13.6329   ZZ=            -14.0395
   XY=             -2.3878   XZ=              0.0000   YZ=              0.0000

 Normal termination of Gaussian 16 at Wed Sep 27 21:37:27 2023.
