 Gaussian 16, Revision B.01,
 Gaussian 16:  ES64L-G16RevB.01 20-Dec-2017

 --------------------
 # b3lyp/gen opt freq
 --------------------

 ----------------------------
 fulminic acid, B3LYP/pcseg-2
 ----------------------------
 Symbolic Z-matrix:
 Charge =  0 Multiplicity = 1

 SCF Done:  E(RB3LYP) =  -168.648636445     A.U. after   13 cycles
 SCF Done:  E(RB3LYP) =  -168.648675321     A.U. after    8 cycles
 Optimization completed.
    -- Stationary point found.
 Normal termination of Gaussian 16 at Thu Jun 16 09:14:50 2022.

 ------------------------------------------------------------------
 #N Geom=AllCheck Guess=TCheck SCRF=Check GenChk RB3LYP/ChkBas Freq
 ------------------------------------------------------------------

 Structure from the checkpoint file:  "/wrk/irikura/Gau-24842.chk"
 ----------------------------
 fulminic acid, B3LYP/pcseg-2
 ----------------------------
 Charge =  0 Multiplicity = 1

                         Standard orientation:
 ---------------------------------------------------------------------
 Center     Atomic      Atomic             Coordinates (Angstroms)
 Number     Number       Type             X           Y           Z
 ---------------------------------------------------------------------
      1          8           0        0.000000    0.000000    1.179171
      2          7           0        0.000000    0.000000   -0.020627
      3          6           0        0.000000    0.000000   -1.175644
      4          1           0        0.000000    0.000000   -2.235114
 ---------------------------------------------------------------------

 SCF Done:  E(RB3LYP) =  -168.648675321     A.U. after    1 cycles

 The electronic state is 1-SG.
 Alpha  occ. eigenvalues --  -19.17078 -14.48089 -10.24156  -1.17254  -0.93084
 Alpha  occ. eigenvalues --   -0.60905  -0.53930  -0.50464  -0.50464  -0.28569
 Alpha  occ. eigenvalues --   -0.28569
 Alpha virt. eigenvalues --   -0.00467  -0.00467   0.01638   0.05394   0.12874
 Alpha virt. eigenvalues --    0.16871   0.16871   0.28421   0.28948   0.31460
 Alpha virt. eigenvalues --    0.32412   0.32412   0.45480   0.45480   0.48874

 Mulliken charges:
               1
     1  O   -0.370172
     2  N    0.183848
     3  C    0.043678
     4  H    0.142647
 Sum of Mulliken charges =   0.00000

 Dipole moment (field-independent basis, Debye):
    X=              0.0000    Y=              0.0000    Z=             -3.2524  Tot=              3.2524
 Quadrupole moment (field-independent basis, Debye-Ang):
   XX=            -16.9107   YY=            -16.9107   ZZ=            -14.2802
   XY=              0.0000   XZ=              0.0000   YZ=              0.0000

  Exact polarizability:  12.824   0.000  12.824  -0.000   0.000  42.207
 Approx polarizability:  16.420  -0.000  16.420  -0.000  -0.000  92.547

                      1                      2                      3
                     PI                     PI                     PI
 Frequencies --    261.9949               261.9949               565.3784
 Red. masses --      1.3840                 1.3840                 4.7428
 Frc consts  --      0.0560                 0.0560                 0.8932
 IR Inten    --     83.4214                83.4214                 1.7610

                      4                      5                      6
                     PI                     SG                     SG
 Frequencies --    565.3784              1289.8221              2321.0527
 Red. masses --      4.7428                 9.4180                 6.3904
 Frc consts  --      0.8932                 9.2314                20.2837
 IR Inten    --      1.7610               140.6733               420.3411

                      7
                     SG
 Frequencies --   3499.9124
 Red. masses --      1.1712
 Frc consts  --      8.4527
 IR Inten    --    263.8993

 - Thermochemistry -
 -------------------
 Temperature   298.150 Kelvin.  Pressure   1.00000 Atm.
 Atom     1 has atomic number  8 and mass  15.99491

 Molecular mass:    43.00581 amu.
 Principal axes and moments of inertia in atomic units:
                           1         2         3
     Eigenvalues --     0.00000 156.24394 156.24394
           X            0.00000  -0.00000   1.00000
           Y            0.00000   1.00000   0.00000
           Z            1.00000   0.00000   0.00000
 This molecule is a prolate symmetric top.
 Rotational symmetry number  1.
 Rotational temperature (Kelvin)      0.55435
 Rotational constant (GHZ):          11.550792
 Zero-point vibrational energy      52429.5 (Joules/Mol)
                                   12.53096 (Kcal/Mol)
 Warning -- explicit consideration of   4 degrees of freedom as
           vibrations may cause significant error
 Vibrational temperatures:    376.95   376.95   813.45   813.45  1855.77
          (Kelvin)           3339.48  5035.59

 Zero-point correction=                           0.019969 (Hartree/Particle)
 Thermal correction to Energy=                    0.023641
 Thermal correction to Enthalpy=                  0.024586
 Thermal correction to Gibbs Free Energy=        -0.002039
 Sum of electronic and zero-point Energies=           -168.628706
 Sum of electronic and thermal Energies=              -168.625034
 Sum of electronic and thermal Enthalpies=            -168.624090
 Sum of electronic and thermal Free Energies=         -168.650715

                     E (Thermal)             CV                S
                      KCal/Mol        Cal/Mol-Kelvin    Cal/Mol-Kelvin
 Total                   14.835             10.822             56.037
 Electronic               0.000              0.000              0.000
 Translational            0.889              2.981             37.203
 Rotational               0.592              1.987             14.482
 Vibrational             13.354              5.854              4.352
 Vibration     1          0.669              1.742              1.648
 Vibration     2          0.669              1.742              1.648
 Vibration     3          0.921              1.106              0.513
 Vibration     4          0.921              1.106              0.513

 Optimization completed.
    -- Stationary point found.
 Normal termination of Gaussian 16 at Thu Jun 16 09:14:59 2022.
