 Gaussian 16, Revision B.01,
 Gaussian 16:  ES64L-G16RevB.01 20-Dec-2017

 ------------------------------------------
 # b3lyp/gen opt=calcall CPHF(Grid=OneStep)
 ------------------------------------------

 ------------------------------
 formate radical, B3LYP/pcseg-2
 ------------------------------
 Symbolic Z-matrix:
 Charge =  0 Multiplicity = 2

 SCF Done:  E(UB3LYP) =  -189.163786235     A.U. after   12 cycles
 SCF Done:  E(UB3LYP) =  -189.163809806     A.U. after    8 cycles
 Optimization completed.
    -- Stationary point found.

                         Standard orientation:
 ---------------------------------------------------------------------
 Center     Atomic      Atomic             Coordinates (Angstroms)
 Number     Number       Type             X           Y           Z
 ---------------------------------------------------------------------
      1          6           0        0.000000    0.000000    0.206896
      2          1           0        0.000000    0.000000    1.368742
      3          8           0       -0.000000    1.163406   -0.163132
      4          8           0       -0.000000   -1.163406   -0.163132
 ---------------------------------------------------------------------

 The electronic state is 2-A1.
 Alpha  occ. eigenvalues --  -19.20226 -19.20225 -10.35174  -1.15086  -1.08955
 Alpha  occ. eigenvalues --   -0.64760  -0.54823  -0.52430  -0.49872  -0.38451
 Alpha  occ. eigenvalues --   -0.36958  -0.34684
 Alpha virt. eigenvalues --   -0.02030   0.01680   0.07832   0.11782   0.14116
 Alpha virt. eigenvalues --    0.21365   0.25481   0.30269   0.30602   0.34601
 Alpha virt. eigenvalues --    0.36975   0.42875   0.44747   0.48076   0.53641

  Beta  occ. eigenvalues --  -19.19121 -19.19120 -10.35330  -1.13017  -1.06375
  Beta  occ. eigenvalues --   -0.60833  -0.53249  -0.49909  -0.49358  -0.35790
  Beta  occ. eigenvalues --   -0.32994
  Beta virt. eigenvalues --   -0.21834  -0.01575   0.02550   0.08524   0.12106
  Beta virt. eigenvalues --    0.14061   0.21994   0.27935   0.30437   0.31287
  Beta virt. eigenvalues --    0.35312   0.37203   0.43627   0.45197   0.49285

 Mulliken charges and spin densities:
               1          2
     1  C    0.494189  -0.046711
     2  H    0.122464   0.308168
     3  O   -0.308326   0.369272
     4  O   -0.308326   0.369272
 Sum of Mulliken charges =  -0.00000   1.00000

 Dipole moment (field-independent basis, Debye):
    X=              0.0000    Y=              0.0000    Z=              1.6302  Tot=              1.6302
 Quadrupole moment (field-independent basis, Debye-Ang):
   XX=            -16.1486   YY=            -21.1962   ZZ=            -14.3086
   XY=             -0.0000   XZ=             -0.0000   YZ=              0.0000

  Exact polarizability:  12.085   0.000  41.420   0.000  -0.000  18.150
 Approx polarizability:  15.701   0.000  82.355   0.000   0.000  24.606

                      1                      2                      3
                     B2                     A1                     B1
 Frequencies --    216.0300               676.1976               851.7631
 Red. masses --      1.2975                11.1398                 2.4302
 Frc consts  --      0.0357                 3.0011                 1.0388
 IR Inten    --    474.2095                31.3069                 0.4474

                      4                      5                      6
                     A1                     B2                     A1
 Frequencies --   1210.1201              1659.7576              2305.4242
 Red. masses --     14.9319                 4.1887                 1.0471
 Frc consts  --     12.8832                 6.7986                 3.2791
 IR Inten    --      5.2146                61.3404                26.3300

 - Thermochemistry -
 -------------------
 Temperature   298.150 Kelvin.  Pressure   1.00000 Atm.
 Atom     1 has atomic number  6 and mass  12.00000

 Molecular mass:    44.99765 amu.
 Principal axes and moments of inertia in atomic units:
                           1         2         3
     Eigenvalues --    11.47102 154.62245 166.09347
           X            0.00000   0.00000   1.00000
           Y            1.00000   0.00000   0.00000
           Z            0.00000   1.00000   0.00000
 This molecule is an asymmetric top.
 Rotational symmetry number  2.
 Rotational temperatures (Kelvin)      7.55067     0.56016     0.52148
 Rotational constants (GHZ):         157.33045    11.67192    10.86582
 Zero-point vibrational energy      41386.6 (Joules/Mol)
                                    9.89163 (Kcal/Mol)
 Warning -- explicit consideration of   1 degrees of freedom as
           vibrations may cause significant error
 Vibrational temperatures:    310.82   972.90  1225.50  1741.09  2388.02
          (Kelvin)           3316.99

 Zero-point correction=                           0.015763 (Hartree/Particle)
 Thermal correction to Energy=                    0.019338
 Thermal correction to Enthalpy=                  0.020282
 Thermal correction to Gibbs Free Energy=        -0.008319
 Sum of electronic and zero-point Energies=           -189.148046
 Sum of electronic and thermal Energies=              -189.144472
 Sum of electronic and thermal Enthalpies=            -189.143528
 Sum of electronic and thermal Free Energies=         -189.172129

                     E (Thermal)             CV                S
                      KCal/Mol        Cal/Mol-Kelvin    Cal/Mol-Kelvin
 Total                   12.135              9.467             60.196
 Electronic               0.000              0.000              1.377
 Translational            0.889              2.981             37.338
 Rotational               0.889              2.981             18.938
 Vibrational             10.357              3.506              2.543
 Vibration     1          0.645              1.817              1.992

 Normal termination of Gaussian 16 at Sat Sep 16 10:40:22 2023.
