 Gaussian 16, Revision B.01,

 ---------------------------------------
 # b3lyp/gen opt freq CPHF(Grid=OneStep)
 ---------------------------------------

 ------------------------------
 formate radical, B3LYP/pcseg-2
 ------------------------------
 Symbolic Z-matrix:
 Charge =  0 Multiplicity = 2

 SCF Done:  E(UB3LYP) =  -189.163809806     A.U. after   12 cycles
 Optimization completed.
    -- Stationary point found.
 Normal termination of Gaussian 16 at Wed Sep 27 20:01:41 2023.

 ------------------------------------------------------------------
 #N Geom=AllCheck Guess=TCheck SCRF=Check GenChk UB3LYP/ChkBas Freq
 ------------------------------------------------------------------

 Structure from the checkpoint file:  "hco2.chk"
 ------------------------------
 formate radical, B3LYP/pcseg-2
 ------------------------------
 Charge =  0 Multiplicity = 2

 SCF Done:  E(UB3LYP) =  -189.163809806     A.U. after    1 cycles

  Exact polarizability:  12.085   0.000  41.420   0.000  -0.000  18.150
 Approx polarizability:  15.701   0.000  82.355   0.000  -0.000  24.606

                      1                      2                      3
                     B2                     A1                     B1
 Frequencies --    216.0333               676.1976               851.7630
 Red. masses --      1.2975                11.1398                 2.4302
 Frc consts  --      0.0357                 3.0011                 1.0388
 IR Inten    --    474.2101                31.3069                 0.4474

                      4                      5                      6
                     A1                     B2                     A1
 Frequencies --   1210.1216              1659.7593              2305.4243
 Red. masses --     14.9319                 4.1887                 1.0471
 Frc consts  --     12.8832                 6.7986                 3.2791
 IR Inten    --      5.2146                61.3399                26.3301

 - Thermochemistry -
 -------------------
 Temperature   298.150 Kelvin.  Pressure   1.00000 Atm.
 Atom     1 has atomic number  6 and mass  12.00000

 Molecular mass:    44.99765 amu.
 Principal axes and moments of inertia in atomic units:
                           1         2         3
     Eigenvalues --    11.47103 154.62234 166.09338
           X            0.00000   0.00000   1.00000
           Y            1.00000   0.00000  -0.00000
           Z            0.00000   1.00000   0.00000
 This molecule is an asymmetric top.
 Rotational symmetry number  2.
 Rotational temperatures (Kelvin)      7.55066     0.56016     0.52148
 Rotational constants (GHZ):         157.33032    11.67193    10.86582
 Zero-point vibrational energy      41386.6 (Joules/Mol)
                                    9.89163 (Kcal/Mol)
 Warning -- explicit consideration of   1 degrees of freedom as
           vibrations may cause significant error
 Vibrational temperatures:    310.82   972.90  1225.50  1741.10  2388.02
          (Kelvin)           3316.99

 Zero-point correction=                           0.015763 (Hartree/Particle)
 Thermal correction to Energy=                    0.019338
 Thermal correction to Enthalpy=                  0.020282
 Thermal correction to Gibbs Free Energy=        -0.008319
 Sum of electronic and zero-point Energies=           -189.148046
 Sum of electronic and thermal Energies=              -189.144472
 Sum of electronic and thermal Enthalpies=            -189.143528
 Sum of electronic and thermal Free Energies=         -189.172129

                     E (Thermal)             CV                S
                      KCal/Mol        Cal/Mol-Kelvin    Cal/Mol-Kelvin
 Total                   12.135              9.467             60.196
 Electronic               0.000              0.000              1.377
 Translational            0.889              2.981             37.338
 Rotational               0.889              2.981             18.938
 Vibrational             10.357              3.506              2.543
 Vibration     1          0.645              1.817              1.992

 Optimization completed.
    -- Stationary point found.
 Normal termination of Gaussian 16 at Wed Sep 27 20:02:16 2023.
 Gaussian 16:  ES64L-G16RevB.01 20-Dec-2017

 ---------------------------------
 # rohf/gen geom=check guess=check
 ---------------------------------

 ---------------------------------
 formate radical, ROHF/cc-pVTZ-F12
 ---------------------------------
 Structure from the checkpoint file:  "hco2.chk"
 Charge =  0 Multiplicity = 2

                         Standard orientation:
 ---------------------------------------------------------------------
 Center     Atomic      Atomic             Coordinates (Angstroms)
 Number     Number       Type             X           Y           Z
 ---------------------------------------------------------------------
      1          6           0       -0.000000    0.000000    0.206896
      2          1           0       -0.000000    0.000000    1.368742
      3          8           0        0.000000    1.163406   -0.163132
      4          8           0       -0.000000   -1.163406   -0.163132
 ---------------------------------------------------------------------

 SCF Done:  E(ROHF) =  -188.156625996     A.U. after   14 cycles

 The electronic state is 2-A1.
 Alpha  occ. eigenvalues --  -20.63298 -20.63293 -11.43455  -1.48330  -1.40421
 Alpha  occ. eigenvalues --   -0.82525  -0.73735  -0.69889  -0.67082  -0.51849
 Alpha  occ. eigenvalues --   -0.48224  -0.19345
 Alpha virt. eigenvalues --    0.04831   0.06249   0.06844   0.07053   0.15222
 Alpha virt. eigenvalues --    0.15315   0.16223   0.17143   0.19244   0.19510
 Alpha virt. eigenvalues --    0.21033   0.21418   0.26965   0.27253   0.41442

 Mulliken charges and spin densities:
               1          2
     1  C    0.604728   0.126987
     2  H    0.202822   0.254576
     3  O   -0.403775   0.309219
     4  O   -0.403775   0.309219
 Sum of Mulliken charges =  -0.00000   1.00000

 Dipole moment (field-independent basis, Debye):
    X=              0.0000    Y=              0.0000    Z=              1.9687  Tot=              1.9687
 Quadrupole moment (field-independent basis, Debye-Ang):
   XX=            -16.0616   YY=            -21.6237   ZZ=            -13.9461
   XY=             -0.0000   XZ=             -0.0000   YZ=             -0.0000

 Normal termination of Gaussian 16 at Wed Sep 27 20:02:23 2023.
