 Gaussian 16, Revision B.01,
 Gaussian 16:  ES64L-G16RevB.01 20-Dec-2017

 --------------------
 # b3lyp/gen opt freq
 --------------------

 ---------------------------
 peroxyformyl, B3LYP/pcseg-2
 ---------------------------
 Symbolic Z-matrix:
 Charge =  0 Multiplicity = 2

 SCF Done:  E(UB3LYP) =  -264.343291717     A.U. after   18 cycles
 SCF Done:  E(UB3LYP) =  -264.343339551     A.U. after   12 cycles
 SCF Done:  E(UB3LYP) =  -264.343346095     A.U. after   10 cycles
 SCF Done:  E(UB3LYP) =  -264.343346861     A.U. after    9 cycles
 Optimization completed.
    -- Stationary point found.
 Normal termination of Gaussian 16 at Sat Jun 18 12:39:24 2022.

 ------------------------------------------------------------------
 #N Geom=AllCheck Guess=TCheck SCRF=Check GenChk UB3LYP/ChkBas Freq
 ------------------------------------------------------------------

 Structure from the checkpoint file:  "/wrk/irikura/Gau-13950.chk"
 ---------------------------
 peroxyformyl, B3LYP/pcseg-2
 ---------------------------
 Charge =  0 Multiplicity = 2

                         Standard orientation:
 ---------------------------------------------------------------------
 Center     Atomic      Atomic             Coordinates (Angstroms)
 Number     Number       Type             X           Y           Z
 ---------------------------------------------------------------------
      1          6           0        0.000000    0.864794    0.000000
      2          1           0       -0.655961    1.742216    0.000000
      3          8           0        1.175756    0.823228    0.000000
      4          8           0       -0.865755   -0.264465    0.000000
      5          8           0       -0.228006   -1.425135    0.000000
 ---------------------------------------------------------------------

 SCF Done:  E(UB3LYP) =  -264.343346861     A.U. after    1 cycles

 The electronic state is 2-A".
 Alpha  occ. eigenvalues --  -19.28369 -19.24476 -19.18082 -10.34858  -1.23911
 Alpha  occ. eigenvalues --   -1.11803  -0.92514  -0.65954  -0.57992  -0.54990
 Alpha  occ. eigenvalues --   -0.53397  -0.48044  -0.44844  -0.35961  -0.33970
 Alpha  occ. eigenvalues --   -0.32152
 Alpha virt. eigenvalues --   -0.05691   0.01750   0.04512   0.07420   0.11859
 Alpha virt. eigenvalues --    0.14136   0.21678   0.24782   0.28342   0.30677
 Alpha virt. eigenvalues --    0.32328   0.32847   0.35617   0.36907   0.39604

  Beta  occ. eigenvalues --  -19.27731 -19.22255 -19.17944 -10.34891  -1.21654
  Beta  occ. eigenvalues --   -1.11322  -0.88924  -0.64614  -0.57564  -0.52588
  Beta  occ. eigenvalues --   -0.50425  -0.47275  -0.41422  -0.35334  -0.30672
  Beta virt. eigenvalues --   -0.16960  -0.04353   0.01858   0.05911   0.07552
  Beta virt. eigenvalues --    0.12290   0.14265   0.22034   0.24921   0.28378
  Beta virt. eigenvalues --    0.31042   0.32488   0.35311   0.35859   0.37751

 Mulliken charges and spin densities:
               1          2
     1  C    0.446038  -0.005354
     2  H    0.051999  -0.003405
     3  O   -0.289136   0.052412
     4  O   -0.096875   0.178014
     5  O   -0.112025   0.778334
 Sum of Mulliken charges =  -0.00000   1.00000

 Dipole moment (field-independent basis, Debye):
    X=             -1.5630    Y=              1.9621    Z=              0.0000  Tot=              2.5085
 Quadrupole moment (field-independent basis, Debye-Ang):
   XX=            -24.9112   YY=            -21.0681   ZZ=            -20.5878
   XY=             -2.6958   XZ=              0.0000   YZ=              0.0000

  Exact polarizability:  25.974   0.513  32.375   0.000   0.000  14.688
 Approx polarizability:  42.171  -1.151  43.972  -0.000  -0.000  20.000

                      1                      2                      3
                     A"                     A'                     A'
 Frequencies --    239.7720               325.3227               780.6972
 Red. masses --      3.3554                14.4931                13.3422
 Frc consts  --      0.1137                 0.9037                 4.7912
 IR Inten    --     16.1801                 2.6621                25.7021

                      4                      5                      6
                     A'                     A"                     A'
 Frequencies --    873.7725               979.1923              1107.2170
 Red. masses --      7.0002                 1.5860                10.5330
 Frc consts  --      3.1489                 0.8960                 7.6079
 IR Inten    --    181.0217                 0.0006                46.3788

                      7                      8                      9
                     A'                     A'                     A'
 Frequencies --   1366.2081              1874.3657              3063.1281
 Red. masses --      1.1602                 9.3289                 1.0986
 Frc consts  --      1.2760                19.3104                 6.0732
 IR Inten    --      0.2884               232.6673                24.2026

 - Thermochemistry -
 -------------------
 Temperature   298.150 Kelvin.  Pressure   1.00000 Atm.
 Atom     1 has atomic number  6 and mass  12.00000

 Molecular mass:    60.99257 amu.
 Principal axes and moments of inertia in atomic units:
                           1         2         3
     Eigenvalues --    72.87259 254.90624 327.77883
           X            0.54159   0.84064   0.00000
           Y            0.84064  -0.54159   0.00000
           Z            0.00000  -0.00000   1.00000
 This molecule is an asymmetric top.
 Rotational symmetry number  1.
 Rotational temperatures (Kelvin)      1.18857     0.33979     0.26425
 Rotational constants (GHZ):          24.76571     7.08002     5.50597
 Zero-point vibrational energy      63460.0 (Joules/Mol)
                                   15.16729 (Kcal/Mol)
 Warning -- explicit consideration of   2 degrees of freedom as
           vibrations may cause significant error
 Vibrational temperatures:    344.98   468.07  1123.25  1257.16  1408.84
          (Kelvin)           1593.04  1965.67  2696.79  4407.16

 Zero-point correction=                           0.024171 (Hartree/Particle)
 Thermal correction to Energy=                    0.028111
 Thermal correction to Enthalpy=                  0.029055
 Thermal correction to Gibbs Free Energy=        -0.002588
 Sum of electronic and zero-point Energies=           -264.319176
 Sum of electronic and thermal Energies=              -264.315236
 Sum of electronic and thermal Enthalpies=            -264.314292
 Sum of electronic and thermal Free Energies=         -264.345935

                     E (Thermal)             CV                S
                      KCal/Mol        Cal/Mol-Kelvin    Cal/Mol-Kelvin
 Total                   17.640             11.398             66.598
 Electronic               0.000              0.000              1.377
 Translational            0.889              2.981             38.244
 Rotational               0.889              2.981             23.325
 Vibrational             15.863              5.437              3.652
 Vibration     1          0.657              1.780              1.805
 Vibration     2          0.709              1.625              1.283

 Optimization completed.
    -- Stationary point found.
 Normal termination of Gaussian 16 at Sat Jun 18 12:39:53 2022.
