 Gaussian 16, Revision B.01,
 Gaussian 16:  ES64L-G16RevB.01 20-Dec-2017

 --------------------
 # b3lyp/gen opt freq
 --------------------

 --------------------------------
 peroxyformic acid, B3LYP/pcseg-2
 --------------------------------
 Symbolic Z-matrix:
 Charge =  0 Multiplicity = 1

 SCF Done:  E(RB3LYP) =  -265.005820945     A.U. after   14 cycles
 SCF Done:  E(RB3LYP) =  -265.005857792     A.U. after   10 cycles
 SCF Done:  E(RB3LYP) =  -265.005879519     A.U. after    9 cycles
 Optimization completed.
    -- Stationary point found.
 Normal termination of Gaussian 16 at Sat Jun 18 12:40:12 2022.

 ------------------------------------------------------------------
 #N Geom=AllCheck Guess=TCheck SCRF=Check GenChk RB3LYP/ChkBas Freq
 ------------------------------------------------------------------

 Structure from the checkpoint file:  "/wrk/irikura/Gau-14817.chk"
 --------------------------------
 peroxyformic acid, B3LYP/pcseg-2
 --------------------------------
 Charge =  0 Multiplicity = 1

                         Standard orientation:
 ---------------------------------------------------------------------
 Center     Atomic      Atomic             Coordinates (Angstroms)
 Number     Number       Type             X           Y           Z
 ---------------------------------------------------------------------
      1          8           0        1.187470    0.715330   -0.000000
      2          6           0        0.000000    0.891731   -0.000000
      3          1           0       -0.523546    1.852584   -0.000000
      4          8           0       -0.912533   -0.088278    0.000000
      5          8           0       -0.291747   -1.384930    0.000000
      6          1           0        0.658024   -1.139943    0.000000
 ---------------------------------------------------------------------

 SCF Done:  E(RB3LYP) =  -265.005879519     A.U. after    1 cycles

 The electronic state is 1-A'.
 Alpha  occ. eigenvalues --  -19.25575 -19.21691 -19.16051 -10.33907  -1.20174
 Alpha  occ. eigenvalues --   -1.08719  -0.96838  -0.67504  -0.59207  -0.52560
 Alpha  occ. eigenvalues --   -0.50971  -0.45232  -0.43067  -0.40500  -0.33897
 Alpha  occ. eigenvalues --   -0.31367
 Alpha virt. eigenvalues --   -0.03886  -0.03361   0.02516   0.04624   0.11751
 Alpha virt. eigenvalues --    0.12329   0.14537   0.24987   0.28364   0.28907
 Alpha virt. eigenvalues --    0.29822   0.31813   0.33624   0.33998   0.37101

 Mulliken charges:
               1
     1  O   -0.421305
     2  C    0.473358
     3  H    0.061616
     4  O   -0.150695
     5  O   -0.179942
     6  H    0.216967
 Sum of Mulliken charges =  -0.00000

 Dipole moment (field-independent basis, Debye):
    X=             -0.4003    Y=              1.3311    Z=             -0.0000  Tot=              1.3900
 Quadrupole moment (field-independent basis, Debye-Ang):
   XX=            -25.6008   YY=            -20.9520   ZZ=            -22.5066
   XY=             -4.4690   XZ=             -0.0000   YZ=              0.0000

  Exact polarizability:  28.455   0.588  32.690   0.000   0.000  16.181
 Approx polarizability:  47.504   0.562  45.588   0.000  -0.000  21.740

                      1                      2                      3
                     A'                     A"                     A"
 Frequencies --    339.6551               370.5358               485.9892
 Red. masses --      6.7516                 2.2250                 1.2609
 Frc consts  --      0.4589                 0.1800                 0.1755
 IR Inten    --     26.5450                 6.3567               122.8934

                      4                      5                      6
                     A'                     A'                     A"
 Frequencies --    845.9459               894.0312              1003.7449
 Red. masses --      7.8571                 8.8358                 1.6046
 Frc consts  --      3.3128                 4.1611                 0.9525
 IR Inten    --      8.1032                30.1434                 0.0315

                      7                      8                      9
                     A'                     A'                     A'
 Frequencies --   1147.4565              1359.4037              1486.1908
 Red. masses --      7.4469                 1.1860                 1.1680
 Frc consts  --      5.7770                 1.2913                 1.5199
 IR Inten    --    131.6905                15.9162                84.1739

                     10                     11                     12
                     A'                     A'                     A'
 Frequencies --   1780.3000              3077.9972              3523.8929
 Red. masses --      8.1974                 1.0937                 1.0663
 Frc consts  --     15.3079                 6.1047                 7.8013
 IR Inten    --    282.3152                14.6139                72.2595

 - Thermochemistry -
 -------------------
 Temperature   298.150 Kelvin.  Pressure   1.00000 Atm.
 Atom     1 has atomic number  8 and mass  15.99491

 Molecular mass:    62.00039 amu.
 Principal axes and moments of inertia in atomic units:
                           1         2         3
     Eigenvalues --    87.73521 238.08146 325.81667
           X            0.56372   0.82597   0.00000
           Y            0.82597  -0.56372   0.00000
           Z           -0.00000   0.00000   1.00000
 This molecule is an asymmetric top.
 Rotational symmetry number  1.
 Rotational temperatures (Kelvin)      0.98722     0.36380     0.26584
 Rotational constants (GHZ):          20.57032     7.58035     5.53913
 Zero-point vibrational energy      97586.2 (Joules/Mol)
                                   23.32367 (Kcal/Mol)
 Warning -- explicit consideration of   3 degrees of freedom as
           vibrations may cause significant error
 Vibrational temperatures:    488.69   533.12   699.23  1217.13  1286.31
          (Kelvin)           1444.17  1650.93  1955.88  2138.30  2561.45
                             4428.55  5070.10

 Zero-point correction=                           0.037169 (Hartree/Particle)
 Thermal correction to Energy=                    0.041142
 Thermal correction to Enthalpy=                  0.042086
 Thermal correction to Gibbs Free Energy=         0.011102
 Sum of electronic and zero-point Energies=           -264.968711
 Sum of electronic and thermal Energies=              -264.964738
 Sum of electronic and thermal Enthalpies=            -264.963794
 Sum of electronic and thermal Free Energies=         -264.994777

                     E (Thermal)             CV                S
                      KCal/Mol        Cal/Mol-Kelvin    Cal/Mol-Kelvin
 Total                   25.817             12.300             65.211
 Electronic               0.000              0.000              0.000
 Translational            0.889              2.981             38.293
 Rotational               0.889              2.981             23.436
 Vibrational             24.039              6.339              3.482
 Vibration     1          0.720              1.596              1.214
 Vibration     2          0.743              1.533              1.078
 Vibration     3          0.842              1.281              0.694

 Optimization completed.
    -- Stationary point found.
 Normal termination of Gaussian 16 at Sat Jun 18 12:40:40 2022.
