 Gaussian 16, Revision B.01,

 ---------------------------------------
 # b3lyp/gen opt freq CPHF(Grid=OneStep)
 ---------------------------------------

 --------------------------------
 peroxyformic acid, B3LYP/pcseg-2
 --------------------------------
 Symbolic Z-matrix:
 Charge =  0 Multiplicity = 1

 SCF Done:  E(RB3LYP) =  -265.005879519     A.U. after   14 cycles
 Optimization completed.
    -- Stationary point found.
 Normal termination of Gaussian 16 at Sat Sep 30 03:20:09 2023.

 ------------------------------------------------------------------
 #N Geom=AllCheck Guess=TCheck SCRF=Check GenChk RB3LYP/ChkBas Freq
 ------------------------------------------------------------------

 Structure from the checkpoint file:  "hco3h.chk"
 --------------------------------
 peroxyformic acid, B3LYP/pcseg-2
 --------------------------------
 Charge =  0 Multiplicity = 1

 SCF Done:  E(RB3LYP) =  -265.005879519     A.U. after    1 cycles

  Exact polarizability:  28.456   0.588  32.690   0.000  -0.000  16.180
 Approx polarizability:  47.504   0.562  45.588   0.000  -0.000  21.740

                      1                      2                      3
                     A'                     A"                     A"
 Frequencies --    339.6557               370.5286               485.9833
 Red. masses --      6.7516                 2.2249                 1.2610
 Frc consts  --      0.4589                 0.1800                 0.1755
 IR Inten    --     26.5450                 6.3592               122.8952

                      4                      5                      6
                     A'                     A'                     A"
 Frequencies --    845.9468               894.0341              1003.7429
 Red. masses --      7.8572                 8.8358                 1.6046
 Frc consts  --      3.3129                 4.1610                 0.9525
 IR Inten    --      8.1034                30.1446                 0.0315

                      7                      8                      9
                     A'                     A'                     A'
 Frequencies --   1147.4552              1359.4043              1486.1924
 Red. masses --      7.4470                 1.1860                 1.1680
 Frc consts  --      5.7770                 1.2913                 1.5199
 IR Inten    --    131.6911                15.9157                84.1713

                     10                     11                     12
                     A'                     A'                     A'
 Frequencies --   1780.3060              3078.0059              3523.8968
 Red. masses --      8.1976                 1.0937                 1.0663
 Frc consts  --     15.3082                 6.1048                 7.8013
 IR Inten    --    282.3189                14.6151                72.2602

 - Thermochemistry -
 -------------------
 Temperature   298.150 Kelvin.  Pressure   1.00000 Atm.
 Atom     1 has atomic number  8 and mass  15.99491

 Molecular mass:    62.00039 amu.
 Principal axes and moments of inertia in atomic units:
                           1         2         3
     Eigenvalues --    87.73524 238.08131 325.81655
           X            0.56372   0.82597   0.00000
           Y            0.82597  -0.56372   0.00000
           Z            0.00000   0.00000   1.00000
 This molecule is an asymmetric top.
 Rotational symmetry number  1.
 Rotational temperatures (Kelvin)      0.98722     0.36380     0.26584
 Rotational constants (GHZ):          20.57031     7.58036     5.53913
 Zero-point vibrational energy      97586.3 (Joules/Mol)
                                   23.32368 (Kcal/Mol)
 Warning -- explicit consideration of   3 degrees of freedom as
           vibrations may cause significant error
 Vibrational temperatures:    488.69   533.11   699.22  1217.13  1286.32
          (Kelvin)           1444.16  1650.93  1955.88  2138.30  2561.46
                             4428.56  5070.10

 Zero-point correction=                           0.037169 (Hartree/Particle)
 Thermal correction to Energy=                    0.041142
 Thermal correction to Enthalpy=                  0.042086
 Thermal correction to Gibbs Free Energy=         0.011102
 Sum of electronic and zero-point Energies=           -264.968711
 Sum of electronic and thermal Energies=              -264.964738
 Sum of electronic and thermal Enthalpies=            -264.963794
 Sum of electronic and thermal Free Energies=         -264.994777

                     E (Thermal)             CV                S
                      KCal/Mol        Cal/Mol-Kelvin    Cal/Mol-Kelvin
 Total                   25.817             12.300             65.211
 Electronic               0.000              0.000              0.000
 Translational            0.889              2.981             38.293
 Rotational               0.889              2.981             23.436
 Vibrational             24.039              6.339              3.482
 Vibration     1          0.720              1.596              1.214
 Vibration     2          0.743              1.533              1.078
 Vibration     3          0.842              1.281              0.694

 Optimization completed.
    -- Stationary point found.
 Normal termination of Gaussian 16 at Sat Sep 30 03:21:34 2023.
 Gaussian 16:  ES64L-G16RevB.01 20-Dec-2017

 ---------------------------------
 # rohf/gen geom=check guess=check
 ---------------------------------

 -----------------------------------
 peroxyformic acid, ROHF/cc-pVTZ-F12
 -----------------------------------
 Structure from the checkpoint file:  "hco3h.chk"
 Charge =  0 Multiplicity = 1

                         Standard orientation:
 ---------------------------------------------------------------------
 Center     Atomic      Atomic             Coordinates (Angstroms)
 Number     Number       Type             X           Y           Z
 ---------------------------------------------------------------------
      1          8           0        1.187470    0.715330    0.000000
      2          6           0        0.000000    0.891731    0.000000
      3          1           0       -0.523546    1.852584    0.000000
      4          8           0       -0.912533   -0.088278   -0.000000
      5          8           0       -0.291747   -1.384930   -0.000000
      6          1           0        0.658024   -1.139943    0.000000
 ---------------------------------------------------------------------

 SCF Done:  E(ROHF) =  -263.638098308     A.U. after   13 cycles

 The electronic state is 1-A'.
 Alpha  occ. eigenvalues --  -20.68497 -20.65836 -20.59024 -11.41650  -1.55393
 Alpha  occ. eigenvalues --   -1.42776  -1.27846  -0.88562  -0.79611  -0.72157
 Alpha  occ. eigenvalues --   -0.70469  -0.61969  -0.60968  -0.57042  -0.50601
 Alpha  occ. eigenvalues --   -0.48576
 Alpha virt. eigenvalues --    0.04775   0.06229   0.06298   0.07265   0.11011
 Alpha virt. eigenvalues --    0.13379   0.14113   0.15880   0.16991   0.17888
 Alpha virt. eigenvalues --    0.18549   0.19612   0.20983   0.21986   0.22046

 Mulliken charges and spin densities:
               1          2
     1  O   -0.551413   0.000000
     2  C    0.514098   0.000000
     3  H    0.184624   0.000000
     4  O   -0.195781   0.000000
     5  O   -0.384873   0.000000
     6  H    0.433345   0.000000
 Sum of Mulliken charges =  -0.00000   0.00000

 Dipole moment (field-independent basis, Debye):
    X=             -0.4786    Y=              1.4791    Z=              0.0000  Tot=              1.5546
 Quadrupole moment (field-independent basis, Debye-Ang):
   XX=            -25.7199   YY=            -20.3344   ZZ=            -22.2679
   XY=             -4.8453   XZ=             -0.0000   YZ=             -0.0000

 Normal termination of Gaussian 16 at Sat Sep 30 03:22:32 2023.
