 Gaussian 16, Revision B.01,
 Gaussian 16:  ES64L-G16RevB.01 20-Dec-2017

 --------------------
 # b3lyp/gen opt freq
 --------------------

 ----------------------------------
 hydroxyacetaldehyde, B3LYP/pcseg-2
 ----------------------------------
 Symbolic Z-matrix:
 Charge =  0 Multiplicity = 1

 SCF Done:  E(RB3LYP) =  -229.146764477     A.U. after   13 cycles
 SCF Done:  E(RB3LYP) =  -229.146813811     A.U. after    8 cycles
 SCF Done:  E(RB3LYP) =  -229.146816443     A.U. after    8 cycles
 Optimization completed.
    -- Stationary point found.
 Normal termination of Gaussian 16 at Sun Sep 10 18:31:14 2023.

 ------------------------------------------------------------------
 #N Geom=AllCheck Guess=TCheck SCRF=Check GenChk RB3LYP/ChkBas Freq
 ------------------------------------------------------------------

 Structure from the checkpoint file:  "/wrk/irikura/Gau-102025.chk"
 ----------------------------------
 hydroxyacetaldehyde, B3LYP/pcseg-2
 ----------------------------------
 Charge =  0 Multiplicity = 1

                         Standard orientation:
 ---------------------------------------------------------------------
 Center     Atomic      Atomic             Coordinates (Angstroms)
 Number     Number       Type             X           Y           Z
 ---------------------------------------------------------------------
      1          6           0        0.000000    0.928013    0.000000
      2          6           0        0.925120   -0.257292    0.000000
      3          8           0       -1.348939    0.558151    0.000000
      4          8           0        0.515287   -1.391047    0.000000
      5          1           0       -1.374167   -0.409292    0.000000
      6          1           0        0.242590    1.540903    0.879198
      7          1           0        0.242590    1.540903   -0.879198
      8          1           0        2.007485   -0.033674    0.000000
 ---------------------------------------------------------------------

 SCF Done:  E(RB3LYP) =  -229.146816443     A.U. after    1 cycles

 The electronic state is 1-A'.
 Alpha  occ. eigenvalues --  -19.15184 -19.13623 -10.28526 -10.24626  -1.08657
 Alpha  occ. eigenvalues --   -1.03740  -0.75230  -0.60763  -0.53934  -0.50017
 Alpha  occ. eigenvalues --   -0.49269  -0.44600  -0.40354  -0.37662  -0.29925
 Alpha  occ. eigenvalues --   -0.29262
 Alpha virt. eigenvalues --   -0.05445   0.01048   0.02990   0.05206   0.05703
 Alpha virt. eigenvalues --    0.10428   0.13147   0.15000   0.18303   0.21657
 Alpha virt. eigenvalues --    0.22876   0.26433   0.29836   0.30197   0.30293

 Mulliken charges:
               1
     1  C    0.289129
     2  C    0.254996
     3  O   -0.417755
     4  O   -0.393004
     5  H    0.199274
     6  H    0.026545
     7  H    0.026545
     8  H    0.014270
 Sum of Mulliken charges =  -0.00000

 Dipole moment (field-independent basis, Debye):
    X=              1.9574    Y=              1.5212    Z=              0.0000  Tot=              2.4790
 Quadrupole moment (field-independent basis, Debye-Ang):
   XX=            -24.5143   YY=            -26.6692   ZZ=            -23.3702
   XY=              4.0353   XZ=             -0.0000   YZ=              0.0000

  Exact polarizability:  35.260   0.984  38.134  -0.000   0.000  24.377
 Approx polarizability:  45.637   4.523  56.987   0.000   0.000  33.770

                      1                      2                      3
                     A"                     A'                     A"
 Frequencies --    214.8193               281.7632               400.6647
 Red. masses --      1.8711                 6.2276                 1.1123
 Frc consts  --      0.0509                 0.2913                 0.1052
 IR Inten    --      4.2609                23.7483                93.8210

                      4                      5                      6
                     A"                     A'                     A'
 Frequencies --    719.3939               763.2202               863.3952
 Red. masses --      1.2224                 5.0099                 3.1647
 Frc consts  --      0.3727                 1.7194                 1.3900
 IR Inten    --      0.0287                 9.8969                55.1416

                      7                      8                      9
                     A"                     A'                     A"
 Frequencies --   1105.2865              1128.2061              1251.5846
 Red. masses --      1.8084                 3.1145                 1.1022
 Frc consts  --      1.3016                 2.3357                 1.0173
 IR Inten    --      0.1780                82.4633                 2.2139

                     10                     11                     12
                     A'                     A'                     A'
 Frequencies --   1292.6628              1393.5118              1432.9886
 Red. masses --      1.4508                 1.1977                 1.3701
 Frc consts  --      1.4283                 1.3703                 1.6576
 IR Inten    --     46.0156                25.8476                42.7708

                     13                     14                     15
                     A'                     A'                     A'
 Frequencies --   1473.9374              1791.9349              2928.9173
 Red. masses --      1.0747                 9.6171                 1.0840
 Frc consts  --      1.3756                18.1944                 5.4787
 IR Inten    --     19.4981               163.3590                66.9793

                     16                     17                     18
                     A'                     A"                     A'
 Frequencies --   2979.4092              2991.9018              3712.5125
 Red. masses --      1.0588                 1.1012                 1.0651
 Frc consts  --      5.5375                 5.8078                 8.6495
 IR Inten    --     59.3646                17.6612                64.0297

 - Thermochemistry -
 -------------------
 Temperature   298.150 Kelvin.  Pressure   1.00000 Atm.
 Atom     1 has atomic number  6 and mass  12.00000

 Molecular mass:    60.02113 amu.
 Principal axes and moments of inertia in atomic units:
                           1         2         3
     Eigenvalues --    97.01945 276.89007 362.78154
           X           -0.69135   0.72252   0.00000
           Y            0.72252   0.69135   0.00000
           Z           -0.00000   0.00000   1.00000
 This molecule is an asymmetric top.
 Rotational symmetry number  1.
 Rotational temperatures (Kelvin)      0.89275     0.31281     0.23875
 Rotational constants (GHZ):          18.60185     6.51790     4.97473
 Zero-point vibrational energy     159857.6 (Joules/Mol)
                                   38.20689 (Kcal/Mol)
 Warning -- explicit consideration of   3 degrees of freedom as
           vibrations may cause significant error
 Vibrational temperatures:    309.08   405.39   576.47  1035.05  1098.10
          (Kelvin)           1242.23  1590.26  1623.24  1800.75  1859.85
                             2004.95  2061.75  2120.67  2578.19  4214.06
                             4286.71  4304.68  5341.48

 Zero-point correction=                           0.060887 (Hartree/Particle)
 Thermal correction to Energy=                    0.065359
 Thermal correction to Enthalpy=                  0.066303
 Thermal correction to Gibbs Free Energy=         0.034285
 Sum of electronic and zero-point Energies=           -229.085930
 Sum of electronic and thermal Energies=              -229.081458
 Sum of electronic and thermal Enthalpies=            -229.080513
 Sum of electronic and thermal Free Energies=         -229.112531

                     E (Thermal)             CV                S
                      KCal/Mol        Cal/Mol-Kelvin    Cal/Mol-Kelvin
 Total                   41.013             14.183             67.388
 Electronic               0.000              0.000              0.000
 Translational            0.889              2.981             38.196
 Rotational               0.889              2.981             23.792
 Vibrational             39.236              8.221              5.399
 Vibration     1          0.645              1.818              2.002
 Vibration     2          0.681              1.707              1.523
 Vibration     3          0.766              1.469              0.960

 Optimization completed.
    -- Stationary point found.
 Normal termination of Gaussian 16 at Sun Sep 10 18:32:29 2023.
