 Gaussian 16, Revision B.01,

 ---------------------------------------
 # b3lyp/gen opt freq CPHF(Grid=OneStep)
 ---------------------------------------

 ----------------------------------
 hydroxyacetaldehyde, B3LYP/pcseg-2
 ----------------------------------
 Symbolic Z-matrix:
 Charge =  0 Multiplicity = 1

 SCF Done:  E(RB3LYP) =  -229.146816444     A.U. after   13 cycles
 Optimization completed.
    -- Stationary point found.
 Normal termination of Gaussian 16 at Fri Sep 29 18:47:36 2023.

 ------------------------------------------------------------------
 #N Geom=AllCheck Guess=TCheck SCRF=Check GenChk RB3LYP/ChkBas Freq
 ------------------------------------------------------------------

 Structure from the checkpoint file:  "hcoch2oh.chk"
 ----------------------------------
 hydroxyacetaldehyde, B3LYP/pcseg-2
 ----------------------------------
 Charge =  0 Multiplicity = 1

 SCF Done:  E(RB3LYP) =  -229.146816444     A.U. after    1 cycles

  Exact polarizability:  35.260   0.984  38.134  -0.000   0.000  24.377
 Approx polarizability:  45.637   4.523  56.987   0.000  -0.000  33.770

                      1                      2                      3
                     A"                     A'                     A"
 Frequencies --    214.8171               281.7644               400.6489
 Red. masses --      1.8711                 6.2276                 1.1123
 Frc consts  --      0.0509                 0.2913                 0.1052
 IR Inten    --      4.2622                23.7473                93.8200

                      4                      5                      6
                     A"                     A'                     A'
 Frequencies --    719.3938               763.2212               863.3954
 Red. masses --      1.2224                 5.0099                 3.1648
 Frc consts  --      0.3727                 1.7194                 1.3900
 IR Inten    --      0.0287                 9.8979                55.1424

                      7                      8                      9
                     A"                     A'                     A"
 Frequencies --   1105.2873              1128.2057              1251.5862
 Red. masses --      1.8084                 3.1145                 1.1022
 Frc consts  --      1.3016                 2.3357                 1.0173
 IR Inten    --      0.1780                82.4618                 2.2137

                     10                     11                     12
                     A'                     A'                     A'
 Frequencies --   1292.6711              1393.5131              1432.9907
 Red. masses --      1.4508                 1.1976                 1.3701
 Frc consts  --      1.4284                 1.3703                 1.6576
 IR Inten    --     46.0081                25.8446                42.7725

                     13                     14                     15
                     A'                     A'                     A'
 Frequencies --   1473.9380              1791.9365              2928.9138
 Red. masses --      1.0747                 9.6171                 1.0840
 Frc consts  --      1.3756                18.1945                 5.4787
 IR Inten    --     19.4972               163.3648                66.9828

                     16                     17                     18
                     A'                     A"                     A'
 Frequencies --   2979.4100              2991.9036              3712.5210
 Red. masses --      1.0588                 1.1012                 1.0651
 Frc consts  --      5.5375                 5.8078                 8.6495
 IR Inten    --     59.3612                17.6610                64.0344

 - Thermochemistry -
 -------------------
 Temperature   298.150 Kelvin.  Pressure   1.00000 Atm.
 Atom     1 has atomic number  6 and mass  12.00000

 Molecular mass:    60.02113 amu.
 Principal axes and moments of inertia in atomic units:
                           1         2         3
     Eigenvalues --    97.01944 276.89018 362.78164
           X           -0.69135   0.72252   0.00000
           Y            0.72252   0.69135   0.00000
           Z           -0.00000   0.00000   1.00000
 This molecule is an asymmetric top.
 Rotational symmetry number  1.
 Rotational temperatures (Kelvin)      0.89275     0.31281     0.23875
 Rotational constants (GHZ):          18.60185     6.51790     4.97473
 Zero-point vibrational energy     159857.7 (Joules/Mol)
                                   38.20690 (Kcal/Mol)
 Warning -- explicit consideration of   3 degrees of freedom as
           vibrations may cause significant error
 Vibrational temperatures:    309.07   405.40   576.44  1035.05  1098.11
          (Kelvin)           1242.23  1590.26  1623.24  1800.75  1859.87
                             2004.95  2061.75  2120.67  2578.20  4214.05
                             4286.71  4304.68  5341.49

 Zero-point correction=                           0.060887 (Hartree/Particle)
 Thermal correction to Energy=                    0.065359
 Thermal correction to Enthalpy=                  0.066303
 Thermal correction to Gibbs Free Energy=         0.034285
 Sum of electronic and zero-point Energies=           -229.085930
 Sum of electronic and thermal Energies=              -229.081458
 Sum of electronic and thermal Enthalpies=            -229.080513
 Sum of electronic and thermal Free Energies=         -229.112531

                     E (Thermal)             CV                S
                      KCal/Mol        Cal/Mol-Kelvin    Cal/Mol-Kelvin
 Total                   41.013             14.183             67.388
 Electronic               0.000              0.000              0.000
 Translational            0.889              2.981             38.196
 Rotational               0.889              2.981             23.792
 Vibrational             39.236              8.221              5.399
 Vibration     1          0.645              1.818              2.002
 Vibration     2          0.681              1.707              1.523
 Vibration     3          0.766              1.469              0.960

 Optimization completed.
    -- Stationary point found.
 Normal termination of Gaussian 16 at Fri Sep 29 18:50:19 2023.
 Gaussian 16:  ES64L-G16RevB.01 20-Dec-2017

 ---------------------------------
 # rohf/gen geom=check guess=check
 ---------------------------------

 -------------------------------------
 hydroxyacetaldehyde, ROHF/cc-pVTZ-F12
 -------------------------------------
 Structure from the checkpoint file:  "hcoch2oh.chk"
 Charge =  0 Multiplicity = 1

                         Standard orientation:
 ---------------------------------------------------------------------
 Center     Atomic      Atomic             Coordinates (Angstroms)
 Number     Number       Type             X           Y           Z
 ---------------------------------------------------------------------
      1          6           0        0.000000    0.928013    0.000000
      2          6           0        0.925120   -0.257292    0.000000
      3          8           0       -1.348939    0.558151    0.000000
      4          8           0        0.515287   -1.391047    0.000000
      5          1           0       -1.374167   -0.409292    0.000000
      6          1           0        0.242590    1.540903    0.879198
      7          1           0        0.242590    1.540903   -0.879198
      8          1           0        2.007485   -0.033674    0.000000
 ---------------------------------------------------------------------

 SCF Done:  E(ROHF) =  -227.874841355     A.U. after   12 cycles

 The electronic state is 1-A'.
 Alpha  occ. eigenvalues --  -20.57947 -20.56743 -11.35124 -11.30335  -1.42626
 Alpha  occ. eigenvalues --   -1.37205  -1.00677  -0.81737  -0.73330  -0.68562
 Alpha  occ. eigenvalues --   -0.66364  -0.61290  -0.55660  -0.54114  -0.46506
 Alpha  occ. eigenvalues --   -0.44854
 Alpha virt. eigenvalues --    0.04367   0.05302   0.06334   0.06691   0.08706
 Alpha virt. eigenvalues --    0.09386   0.09768   0.12701   0.14416   0.16465
 Alpha virt. eigenvalues --    0.17589   0.19167   0.19799   0.21454   0.22636

 Mulliken charges and spin densities:
               1          2
     1  C    0.133694   0.000000
     2  C    0.392539   0.000000
     3  O   -0.711702   0.000000
     4  O   -0.559528   0.000000
     5  H    0.442789   0.000000
     6  H    0.090428   0.000000
     7  H    0.090428   0.000000
     8  H    0.121353   0.000000
 Sum of Mulliken charges =  -0.00000   0.00000

 Dipole moment (field-independent basis, Debye):
    X=              2.2068    Y=              1.7898    Z=             -0.0000  Tot=              2.8414
 Quadrupole moment (field-independent basis, Debye-Ang):
   XX=            -24.0143   YY=            -26.8468   ZZ=            -23.2324
   XY=              4.3380   XZ=              0.0000   YZ=             -0.0000

 Normal termination of Gaussian 16 at Fri Sep 29 18:51:29 2023.
