 Gaussian 16, Revision B.01,
 Gaussian 16:  ES64L-G16RevB.01 20-Dec-2017

 --------------------
 # b3lyp/gen opt freq
 --------------------

 -------------------------------
 hydroxymethylene, B3LYP/pcseg-2
 -------------------------------
 Symbolic Z-matrix:
 Charge =  0 Multiplicity = 1

 SCF Done:  E(RB3LYP) =  -114.470354717     A.U. after   12 cycles
 SCF Done:  E(RB3LYP) =  -114.470453186     A.U. after   10 cycles
 SCF Done:  E(RB3LYP) =  -114.470475634     A.U. after    8 cycles
 SCF Done:  E(RB3LYP) =  -114.470477710     A.U. after    7 cycles
 Optimization completed.
    -- Stationary point found.
 Normal termination of Gaussian 16 at Sat Jun 18 10:54:16 2022.

 ------------------------------------------------------------------
 #N Geom=AllCheck Guess=TCheck SCRF=Check GenChk RB3LYP/ChkBas Freq
 ------------------------------------------------------------------

 Structure from the checkpoint file:  "/wrk/irikura/Gau-23227.chk"
 -------------------------------
 hydroxymethylene, B3LYP/pcseg-2
 -------------------------------
 Charge =  0 Multiplicity = 1

                         Standard orientation:
 ---------------------------------------------------------------------
 Center     Atomic      Atomic             Coordinates (Angstroms)
 Number     Number       Type             X           Y           Z
 ---------------------------------------------------------------------
      1          6           0        0.010725    0.741233   -0.000000
      2          8           0        0.010725   -0.568070   -0.000000
      3          1           0       -1.075449    0.980846    0.000000
      4          1           0        0.925302   -0.883688   -0.000000
 ---------------------------------------------------------------------

 SCF Done:  E(RB3LYP) =  -114.470477710     A.U. after    1 cycles

 The electronic state is 1-A'.
 Alpha  occ. eigenvalues --  -19.21655 -10.24562  -1.12012  -0.69174  -0.49200
 Alpha  occ. eigenvalues --   -0.47146  -0.43638  -0.23035
 Alpha virt. eigenvalues --   -0.06783  -0.00033   0.04901   0.13254   0.18319
 Alpha virt. eigenvalues --    0.18823   0.25009   0.27961   0.32225   0.33707
 Alpha virt. eigenvalues --    0.36391   0.36888   0.45164   0.65963   0.68085

 Mulliken charges:
               1
     1  C   -0.035672
     2  O   -0.234244
     3  H    0.016014
     4  H    0.253901
 Sum of Mulliken charges =  -0.00000

 Dipole moment (field-independent basis, Debye):
    X=              0.1350    Y=             -1.6556    Z=              0.0000  Tot=              1.6611
 Quadrupole moment (field-independent basis, Debye-Ang):
   XX=            -11.3963   YY=            -14.0214   ZZ=            -12.2367
   XY=             -3.8785   XZ=              0.0000   YZ=              0.0000

  Exact polarizability:  20.156  -2.571  20.641   0.000   0.000  13.883
 Approx polarizability:  24.924  -4.195  27.690   0.000   0.000  19.400

                      1                      2                      3
                     A"                     A'                     A'
 Frequencies --   1093.5690              1215.0948              1322.9511
 Red. masses --      1.0745                 1.1366                 7.8202
 Frc consts  --      0.7571                 0.9888                 8.0641
 IR Inten    --    122.5054               140.1769                72.0266

                      4                      5                      6
                     A'                     A'                     A'
 Frequencies --   1504.0071              2852.4661              3705.1346
 Red. masses --      1.2092                 1.0828                 1.0662
 Frc consts  --      1.6116                 5.1910                 8.6237
 IR Inten    --     23.5754               142.3544                74.4675

 - Thermochemistry -
 -------------------
 Temperature   298.150 Kelvin.  Pressure   1.00000 Atm.
 Atom     1 has atomic number  6 and mass  12.00000

 Molecular mass:    30.01056 amu.
 Principal axes and moments of inertia in atomic units:
                           1         2         3
     Eigenvalues --     6.17165  49.33002  55.50167
           X           -0.15828   0.98739   0.00000
           Y            0.98739   0.15828   0.00000
           Z            0.00000   0.00000   1.00000
 This molecule is an asymmetric top.
 Rotational symmetry number  1.
 Rotational temperatures (Kelvin)     14.03416     1.75581     1.56056
 Rotational constants (GHZ):         292.42449    36.58505    32.51688
 Zero-point vibrational energy      69941.0 (Joules/Mol)
                                   16.71630 (Kcal/Mol)
 Vibrational temperatures:   1573.40  1748.25  1903.43  2163.93  4104.06
          (Kelvin)           5330.86

 Zero-point correction=                           0.026639 (Hartree/Particle)
 Thermal correction to Energy=                    0.029528
 Thermal correction to Enthalpy=                  0.030472
 Thermal correction to Gibbs Free Energy=         0.004936
 Sum of electronic and zero-point Energies=           -114.443839
 Sum of electronic and thermal Energies=              -114.440950
 Sum of electronic and thermal Enthalpies=            -114.440005
 Sum of electronic and thermal Free Energies=         -114.465541

                     E (Thermal)             CV                S
                      KCal/Mol        Cal/Mol-Kelvin    Cal/Mol-Kelvin
 Total                   18.529              6.654             53.745
 Electronic               0.000              0.000              0.000
 Translational            0.889              2.981             36.130
 Rotational               0.889              2.981             17.476
 Vibrational             16.752              0.692              0.139

 Optimization completed.
    -- Stationary point found.
 Normal termination of Gaussian 16 at Sat Jun 18 10:54:25 2022.
