 Gaussian 16, Revision B.01,

 ---------------------------------------
 # b3lyp/gen opt freq CPHF(Grid=OneStep)
 ---------------------------------------

 --------------------------
 formic acid, B3LYP/pcseg-2
 --------------------------
 Symbolic Z-matrix:
 Charge =  0 Multiplicity = 1

 SCF Done:  E(RB3LYP) =  -189.849355020     A.U. after   12 cycles
 Optimization completed.
    -- Stationary point found.
 Normal termination of Gaussian 16 at Thu Sep 28 22:13:48 2023.

 ------------------------------------------------------------------
 #N Geom=AllCheck Guess=TCheck SCRF=Check GenChk RB3LYP/ChkBas Freq
 ------------------------------------------------------------------

 Structure from the checkpoint file:  "hcooh.chk"
 --------------------------
 formic acid, B3LYP/pcseg-2
 --------------------------
 Charge =  0 Multiplicity = 1

 SCF Done:  E(RB3LYP) =  -189.849355020     A.U. after    1 cycles

  Exact polarizability:  25.601   0.456  21.987  -0.000   0.000  13.567
 Approx polarizability:  39.842  -0.112  28.176  -0.000   0.000  17.990

                      1                      2                      3
                     A'                     A"                     A"
 Frequencies --    629.2855               679.2287              1053.7302
 Red. masses --      3.4429                 1.2537                 1.5822
 Frc consts  --      0.8033                 0.3408                 1.0350
 IR Inten    --     43.6980               147.0496                 1.5987

                      4                      5                      6
                     A'                     A'                     A'
 Frequencies --   1121.4470              1298.6905              1404.5586
 Red. masses --      3.4591                 1.7342                 1.1322
 Frc consts  --      2.5631                 1.7233                 1.3159
 IR Inten    --    266.0604                 9.9157                 2.3108

                      7                      8                      9
                     A'                     A'                     A'
 Frequencies --   1815.2517              3054.1622              3728.7079
 Red. masses --      8.2432                 1.0913                 1.0638
 Frc consts  --     16.0037                 5.9979                 8.7142
 IR Inten    --    377.4903                42.5685                60.3906

 - Thermochemistry -
 -------------------
 Temperature   298.150 Kelvin.  Pressure   1.00000 Atm.
 Atom     1 has atomic number  6 and mass  12.00000

 Molecular mass:    46.00548 amu.
 Principal axes and moments of inertia in atomic units:
                           1         2         3
     Eigenvalues --    23.09817 149.55003 172.64819
           X            0.95661  -0.29136   0.00000
           Y            0.29136   0.95661   0.00000
           Z           -0.00000   0.00000   1.00000
 This molecule is an asymmetric top.
 Rotational symmetry number  1.
 Rotational temperatures (Kelvin)      3.74982     0.57916     0.50168
 Rotational constants (GHZ):          78.13352    12.06781    10.45329
 Zero-point vibrational energy      88434.3 (Joules/Mol)
                                   21.13631 (Kcal/Mol)
 Vibrational temperatures:    905.40   977.26  1516.08  1613.51  1868.53
          (Kelvin)           2020.85  2611.74  4394.26  5364.78

 Zero-point correction=                           0.033683 (Hartree/Particle)
 Thermal correction to Energy=                    0.036854
 Thermal correction to Enthalpy=                  0.037798
 Thermal correction to Gibbs Free Energy=         0.009606
 Sum of electronic and zero-point Energies=           -189.815672
 Sum of electronic and thermal Energies=              -189.812501
 Sum of electronic and thermal Enthalpies=            -189.811557
 Sum of electronic and thermal Free Energies=         -189.839749

                     E (Thermal)             CV                S
                      KCal/Mol        Cal/Mol-Kelvin    Cal/Mol-Kelvin
 Total                   23.126              8.663             59.334
 Electronic               0.000              0.000              0.000
 Translational            0.889              2.981             37.404
 Rotational               0.889              2.981             21.016
 Vibrational             21.349              2.701              0.914

 Optimization completed.
    -- Stationary point found.
 Normal termination of Gaussian 16 at Thu Sep 28 22:14:36 2023.
 Gaussian 16:  ES64L-G16RevB.01 20-Dec-2017

 ---------------------------------
 # rohf/gen geom=check guess=check
 ---------------------------------

 -----------------------------
 formic acid, ROHF/cc-pVTZ-F12
 -----------------------------
 Structure from the checkpoint file:  "hcooh.chk"
 Charge =  0 Multiplicity = 1

                         Standard orientation:
 ---------------------------------------------------------------------
 Center     Atomic      Atomic             Coordinates (Angstroms)
 Number     Number       Type             X           Y           Z
 ---------------------------------------------------------------------
      1          6           0        0.000000    0.420864    0.000000
      2          8           0       -1.027094   -0.446949    0.000000
      3          8           0        1.157626    0.118410    0.000000
      4          1           0       -0.384787    1.446819    0.000000
      5          1           0       -0.659472   -1.343689    0.000000
 ---------------------------------------------------------------------

 SCF Done:  E(ROHF) =  -188.856056973     A.U. after   12 cycles

 The electronic state is 1-A'.
 Alpha  occ. eigenvalues --  -20.62574 -20.56543 -11.39562  -1.47789  -1.37981
 Alpha  occ. eigenvalues --   -0.89760  -0.72681  -0.71441  -0.63923  -0.60599
 Alpha  occ. eigenvalues --   -0.49927  -0.47532
 Alpha virt. eigenvalues --    0.05563   0.05623   0.06744   0.07565   0.13928
 Alpha virt. eigenvalues --    0.14871   0.15692   0.17096   0.17756   0.20764
 Alpha virt. eigenvalues --    0.20987   0.21562   0.23664   0.27872   0.28687

 Mulliken charges and spin densities:
               1          2
     1  C    0.559656   0.000000
     2  O   -0.578903   0.000000
     3  O   -0.560413   0.000000
     4  H    0.157880   0.000000
     5  H    0.421781   0.000000
 Sum of Mulliken charges =  -0.00000   0.00000

 Dipole moment (field-independent basis, Debye):
    X=             -1.7149    Y=             -0.1252    Z=              0.0000  Tot=              1.7195
 Quadrupole moment (field-independent basis, Debye-Ang):
   XX=            -22.6759   YY=            -12.4089   ZZ=            -16.9810
   XY=             -0.2697   XZ=             -0.0000   YZ=             -0.0000

 Normal termination of Gaussian 16 at Thu Sep 28 22:14:48 2023.
