 Gaussian 16, Revision B.01,
 Gaussian 16:  ES64L-G16RevB.01 20-Dec-2017

 --------------------
 # b3lyp/gen opt freq
 --------------------

 --------------------------
 formic acid, B3LYP/pcseg-2
 --------------------------
 Symbolic Z-matrix:
 Charge =  0 Multiplicity = 1

 SCF Done:  E(RB3LYP) =  -189.849325952     A.U. after   12 cycles
 SCF Done:  E(RB3LYP) =  -189.849353153     A.U. after    8 cycles
 SCF Done:  E(RB3LYP) =  -189.849355020     A.U. after    7 cycles
 Optimization completed.
    -- Stationary point found.
 Normal termination of Gaussian 16 at Thu Feb 24 15:28:03 2022.

 ------------------------------------------------------------------
 #N Geom=AllCheck Guess=TCheck SCRF=Check GenChk RB3LYP/ChkBas Freq
 ------------------------------------------------------------------

 Structure from the checkpoint file:  "/wrk/irikura/Gau-20894.chk"
 --------------------------
 formic acid, B3LYP/pcseg-2
 --------------------------
 Charge =  0 Multiplicity = 1

                         Standard orientation:
 ---------------------------------------------------------------------
 Center     Atomic      Atomic             Coordinates (Angstroms)
 Number     Number       Type             X           Y           Z
 ---------------------------------------------------------------------
      1          6           0        0.000000    0.420864    0.000000
      2          8           0       -1.027094   -0.446949   -0.000000
      3          8           0        1.157626    0.118410    0.000000
      4          1           0       -0.384787    1.446819   -0.000000
      5          1           0       -0.659473   -1.343689   -0.000000
 ---------------------------------------------------------------------

 SCF Done:  E(RB3LYP) =  -189.849355020     A.U. after    1 cycles

 The electronic state is 1-A'.
 Alpha  occ. eigenvalues --  -19.19334 -19.13647 -10.32203  -1.12985  -1.04463
 Alpha  occ. eigenvalues --   -0.68086  -0.53640  -0.50487  -0.46671  -0.42331
 Alpha  occ. eigenvalues --   -0.35000  -0.30825
 Alpha virt. eigenvalues --   -0.02125   0.00828   0.03731   0.11264   0.14332
 Alpha virt. eigenvalues --    0.15318   0.21805   0.28646   0.29736   0.31350
 Alpha virt. eigenvalues --    0.35125   0.36512   0.39369   0.42603   0.43934

 Mulliken charges:
               1
     1  C    0.464789
     2  O   -0.323468
     3  O   -0.395309
     4  H    0.037304
     5  H    0.216684
 Sum of Mulliken charges =   0.00000

 Dipole moment (field-independent basis, Debye):
    X=             -1.5114    Y=             -0.2961    Z=             -0.0000  Tot=              1.5401
 Quadrupole moment (field-independent basis, Debye-Ang):
   XX=            -22.4618   YY=            -12.9164   ZZ=            -17.1084
   XY=             -0.0834   XZ=             -0.0000   YZ=              0.0000

  Exact polarizability:  25.601   0.456  21.986  -0.000   0.000  13.567
 Approx polarizability:  39.842  -0.112  28.176   0.000   0.000  17.990

                      1                      2                      3
                     A'                     A"                     A"
 Frequencies --    629.2858               679.2257              1053.7294
 Red. masses --      3.4429                 1.2537                 1.5822
 Frc consts  --      0.8033                 0.3408                 1.0350
 IR Inten    --     43.6982               147.0523                 1.5989

                      4                      5                      6
                     A'                     A'                     A'
 Frequencies --   1121.4439              1298.6883              1404.5580
 Red. masses --      3.4591                 1.7342                 1.1322
 Frc consts  --      2.5631                 1.7233                 1.3159
 IR Inten    --    266.0621                 9.9164                 2.3110

                      7                      8                      9
                     A'                     A'                     A'
 Frequencies --   1815.2481              3054.1702              3728.7150
 Red. masses --      8.2432                 1.0913                 1.0638
 Frc consts  --     16.0036                 5.9979                 8.7143
 IR Inten    --    377.4915                42.5708                60.3906

 - Thermochemistry -
 -------------------
 Temperature   298.150 Kelvin.  Pressure   1.00000 Atm.
 Atom     1 has atomic number  6 and mass  12.00000

 Molecular mass:    46.00548 amu.
 Principal axes and moments of inertia in atomic units:
                           1         2         3
     Eigenvalues --    23.09816 149.55002 172.64818
           X            0.95661  -0.29136   0.00000
           Y            0.29136   0.95661   0.00000
           Z           -0.00000   0.00000   1.00000
 This molecule is an asymmetric top.
 Rotational symmetry number  1.
 Rotational temperatures (Kelvin)      3.74982     0.57916     0.50168
 Rotational constants (GHZ):          78.13353    12.06781    10.45329
 Zero-point vibrational energy      88434.3 (Joules/Mol)
                                   21.13631 (Kcal/Mol)
 Vibrational temperatures:    905.40   977.25  1516.08  1613.51  1868.52
          (Kelvin)           2020.85  2611.74  4394.27  5364.79

 Zero-point correction=                           0.033683 (Hartree/Particle)
 Thermal correction to Energy=                    0.036854
 Thermal correction to Enthalpy=                  0.037798
 Thermal correction to Gibbs Free Energy=         0.009606
 Sum of electronic and zero-point Energies=           -189.815672
 Sum of electronic and thermal Energies=              -189.812501
 Sum of electronic and thermal Enthalpies=            -189.811557
 Sum of electronic and thermal Free Energies=         -189.839749

                     E (Thermal)             CV                S
                      KCal/Mol        Cal/Mol-Kelvin    Cal/Mol-Kelvin
 Total                   23.126              8.663             59.334
 Electronic               0.000              0.000              0.000
 Translational            0.889              2.981             37.404
 Rotational               0.889              2.981             21.016
 Vibrational             21.349              2.701              0.914

 Optimization completed.
    -- Stationary point found.
 Normal termination of Gaussian 16 at Thu Feb 24 15:28:34 2022.
