 Gaussian 16, Revision B.01,
 Gaussian 16:  ES64L-G16RevB.01 20-Dec-2017

 --------------------
 # b3lyp/gen opt freq
 --------------------

 ------------------------
 n-heptane, B3LYP/pcseg-2
 ------------------------
 Symbolic Z-matrix:
 Charge =  0 Multiplicity = 1

 SCF Done:  E(RB3LYP) =  -276.511279553     A.U. after   11 cycles
 SCF Done:  E(RB3LYP) =  -276.511472246     A.U. after    7 cycles
 SCF Done:  E(RB3LYP) =  -276.511472664     A.U. after    5 cycles
 Optimization completed.
    -- Stationary point found.
 Normal termination of Gaussian 16 at Thu Jun 16 12:33:20 2022.

 ------------------------------------------------------------------
 #N Geom=AllCheck Guess=TCheck SCRF=Check GenChk RB3LYP/ChkBas Freq
 ------------------------------------------------------------------

 Structure from the checkpoint file:  "/wrk/irikura/Gau-2825.chk"
 ------------------------
 n-heptane, B3LYP/pcseg-2
 ------------------------
 Charge =  0 Multiplicity = 1

                         Standard orientation:
 ---------------------------------------------------------------------
 Center     Atomic      Atomic             Coordinates (Angstroms)
 Number     Number       Type             X           Y           Z
 ---------------------------------------------------------------------
      1          6           0       -0.000000   -0.000000    0.493007
      2          6           0       -0.000000    1.280166   -0.343000
      3          6           0       -0.000000   -1.280166   -0.343000
      4          6           0       -0.000000    2.560826    0.492764
      5          6           0       -0.000000   -2.560826    0.492764
      6          6           0       -0.000000    3.834102   -0.351543
      7          6           0       -0.000000   -3.834102   -0.351543
      8          1           0       -0.874451    0.000000    1.152324
      9          1           0        0.874451   -0.000000    1.152324
     10          1           0       -0.874406    1.281350   -1.002548
     11          1           0        0.874406    1.281350   -1.002548
     12          1           0        0.874406   -1.281350   -1.002548
     13          1           0       -0.874406   -1.281350   -1.002548
     14          1           0        0.873835    2.560116    1.151303
     15          1           0       -0.873835    2.560116    1.151303
     16          1           0       -0.873835   -2.560116    1.151303
     17          1           0        0.873835   -2.560116    1.151303
     18          1           0       -0.000000    4.728398    0.273114
     19          1           0        0.880524    3.880139   -0.995646
     20          1           0       -0.880524    3.880139   -0.995646
     21          1           0       -0.000000   -4.728398    0.273114
     22          1           0       -0.880524   -3.880139   -0.995646
     23          1           0        0.880524   -3.880139   -0.995646
 ---------------------------------------------------------------------

 SCF Done:  E(RB3LYP) =  -276.511472664     A.U. after    1 cycles

 The electronic state is 1-A1.
 Alpha  occ. eigenvalues --  -10.16278 -10.16278 -10.16089 -10.16068 -10.16055
 Alpha  occ. eigenvalues --  -10.15640 -10.15640  -0.80947  -0.77998  -0.73318
 Alpha  occ. eigenvalues --   -0.67397  -0.61258  -0.57670  -0.57577  -0.48357
 Alpha  occ. eigenvalues --   -0.45733  -0.43511  -0.42787  -0.41889  -0.40284
 Alpha  occ. eigenvalues --   -0.37695  -0.37315  -0.36118  -0.34292  -0.33812
 Alpha  occ. eigenvalues --   -0.32558  -0.32514  -0.32172  -0.30854
 Alpha virt. eigenvalues --    0.01472   0.02336   0.03414   0.03658   0.04163
 Alpha virt. eigenvalues --    0.05792   0.06397   0.07261   0.08729   0.09035
 Alpha virt. eigenvalues --    0.10134   0.10211   0.10399   0.11343   0.12345

 Mulliken charges:
               1
     1  C   -0.014763
     2  C   -0.012272
     3  C   -0.012272
     4  C   -0.007353
     5  C   -0.007353
     6  C   -0.074345
     7  C   -0.074345
     8  H    0.005419
     9  H    0.005419
    10  H    0.005059
    11  H    0.005059
    12  H    0.005059
    13  H    0.005059
    14  H    0.009950
    15  H    0.009950
    16  H    0.009950
    17  H    0.009950
    18  H    0.029431
    19  H    0.018242
    20  H    0.018242
    21  H    0.029431
    22  H    0.018242
    23  H    0.018242
 Sum of Mulliken charges =  -0.00000

 Dipole moment (field-independent basis, Debye):
    X=             -0.0000    Y=              0.0000    Z=              0.0936  Tot=              0.0936
 Quadrupole moment (field-independent basis, Debye-Ang):
   XX=            -48.0614   YY=            -50.4947   ZZ=            -49.8234
   XY=              0.0000   XZ=             -0.0000   YZ=             -0.0000

  Exact polarizability:  76.614   0.000 109.857   0.000  -0.000  82.153
 Approx polarizability: 116.990   0.000 117.865   0.000  -0.000 118.908

                      1                      2                      3
                     B1                     A2                     A1
 Frequencies --     61.9749                74.7657                99.1081
 Red. masses --      2.7914                 1.5217                 2.9863
 Frc consts  --      0.0063                 0.0050                 0.0173
 IR Inten    --      0.0053                 0.0000                 0.0001

                      4                      5                      6
                     A2                     B1                     A2
 Frequencies --    139.2466               144.0321               242.5171
 Red. masses --      2.2390                 1.6904                 1.1019
 Frc consts  --      0.0256                 0.0207                 0.0382
 IR Inten    --      0.0000                 0.0040                 0.0000

                      7                      8                      9
                     B1                     B2                     A1
 Frequencies --    244.2821               244.7002               300.9698
 Red. masses --      1.1374                 2.6712                 3.6413
 Frc consts  --      0.0400                 0.0942                 0.1943
 IR Inten    --      0.0002                 0.0009                 0.0002

                     10                     11                     12
                     A1                     B2                     B1
 Frequencies --    417.2465               481.3452               731.9612
 Red. masses --      2.6085                 2.8955                 1.0601
 Frc consts  --      0.2676                 0.3953                 0.3346
 IR Inten    --      0.0206                 0.0925                 4.9841

                     13                     14                     15
                     A2                     B1                     A2
 Frequencies --    739.4149               775.3346               848.5424
 Red. masses --      1.0840                 1.1326                 1.1767
 Frc consts  --      0.3492                 0.4012                 0.4992
 IR Inten    --      0.0000                 1.0091                 0.0000

                     16                     17                     18
                     B2                     A1                     B1
 Frequencies --    880.6156               917.7147               940.7946
 Red. masses --      2.1318                 1.7012                 1.1776
 Frc consts  --      0.9740                 0.8442                 0.6141
 IR Inten    --      1.7621                 0.9918                 0.4960

                     19                     20                     21
                     A1                     A2                     B2
 Frequencies --    993.6006              1030.0003              1034.6735
 Red. masses --      3.9144                 1.1087                 3.2670
 Frc consts  --      2.2769                 0.6930                 2.0607
 IR Inten    --      0.0039                 0.0000                 0.2947

                     22                     23                     24
                     A1                     B2                     B2
 Frequencies --   1063.5966              1064.0718              1089.7447
 Red. masses --      2.5556                 2.2268                 1.7389
 Frc consts  --      1.7033                 1.4855                 1.2167
 IR Inten    --      0.5845                 0.0672                 2.7693

                     25                     26                     27
                     A1                     B1                     A2
 Frequencies --   1157.2131              1207.6198              1244.5147
 Red. masses --      2.6360                 1.8911                 1.4621
 Frc consts  --      2.0798                 1.6249                 1.3342
 IR Inten    --      0.7587                 0.0176                 0.0000

                     28                     29                     30
                     B2                     B1                     A1
 Frequencies --   1265.8528              1294.6128              1324.7295
 Red. masses --      1.3027                 1.2689                 1.3292
 Frc consts  --      1.2299                 1.2530                 1.3744
 IR Inten    --      1.9368                 0.2084                 0.0482

                     31                     32                     33
                     A2                     A2                     B1
 Frequencies --   1326.9610              1332.9933              1338.7619
 Red. masses --      1.0899                 1.0901                 1.0814
 Frc consts  --      1.1308                 1.1412                 1.1420
 IR Inten    --      0.0000                 0.0000                 0.8709

                     34                     35                     36
                     B2                     B2                     A1
 Frequencies --   1372.7587              1397.9887              1398.1208
 Red. masses --      1.4102                 1.5854                 1.5359
 Frc consts  --      1.5658                 1.8255                 1.7689
 IR Inten    --      1.8905                 0.9043                 0.6753

                     37                     38                     39
                     A1                     B2                     B2
 Frequencies --   1413.9394              1415.3377              1484.4722
 Red. masses --      1.2277                 1.2588                 1.0719
 Frc consts  --      1.4461                 1.4856                 1.3917
 IR Inten    --      2.4588                 1.1748                 0.2166

                     40                     41                     42
                     A1                     A1                     B2
 Frequencies --   1484.9491              1489.3554              1494.8502
 Red. masses --      1.0733                 1.0604                 1.0595
 Frc consts  --      1.3944                 1.3859                 1.3949
 IR Inten    --      0.0005                 0.0773                 1.4696

                     43                     44                     45
                     A2                     B1                     A1
 Frequencies --   1498.9265              1498.9884              1502.4628
 Red. masses --      1.0397                 1.0400                 1.0723
 Frc consts  --      1.3764                 1.3769                 1.4261
 IR Inten    --      0.0000                14.7300                 0.8579

                     46                     47                     48
                     B2                     A1                     B2
 Frequencies --   1510.2120              1516.2277              2994.5660
 Red. masses --      1.0872                 1.0962                 1.0575
 Frc consts  --      1.4610                 1.4848                 5.5872
 IR Inten    --      0.9915                12.4918                 0.0067

                     49                     50                     51
                     A1                     A1                     B2
 Frequencies --   2995.1269              3001.4370              3009.5700
 Red. masses --      1.0571                 1.0586                 1.0595
 Frc consts  --      5.5874                 5.6188                 5.6542
 IR Inten    --      0.3962                 6.9618                 0.0009

                     52                     53                     54
                     B1                     A1                     A2
 Frequencies --   3009.8591              3013.6015              3015.8904
 Red. masses --      1.0988                 1.0595                 1.1009
 Frc consts  --      5.8649                 5.6690                 5.8994
 IR Inten    --      0.0780               135.9922                 0.0000

                     55                     56                     57
                     B2                     A1                     B1
 Frequencies --   3022.9318              3023.3736              3028.5424
 Red. masses --      1.0353                 1.0357                 1.1034
 Frc consts  --      5.5741                 5.5777                 5.9630
 IR Inten    --     49.6868                41.5038                 0.1490

                     58                     59                     60
                     A2                     B1                     A2
 Frequencies --   3041.9338              3053.2675              3082.1513
 Red. masses --      1.1050                 1.1053                 1.1024
 Frc consts  --      6.0246                 6.0709                 6.1702
 IR Inten    --      0.0000                98.4377                 0.0000

                     61                     62                     63
                     B1                     B2                     A1
 Frequencies --   3082.5276              3087.3127              3087.4606
 Red. masses --      1.1024                 1.1010                 1.1008
 Frc consts  --      6.1714                 6.1827                 6.1827
 IR Inten    --    131.1599                34.3783                49.9445

 - Thermochemistry -
 -------------------
 Temperature   298.150 Kelvin.  Pressure   1.00000 Atm.
 Atom     1 has atomic number  6 and mass  12.00000

 Molecular mass:   100.12520 amu.
 Principal axes and moments of inertia in atomic units:
                           1         2         3
     Eigenvalues --   148.473602496.726122567.86912
           X            0.00000   0.00000   1.00000
           Y            1.00000   0.00000  -0.00000
           Z           -0.00000   1.00000  -0.00000
 This molecule is an asymmetric top.
 Rotational symmetry number  2.
 Rotational temperatures (Kelvin)      0.58336     0.03469     0.03373
 Rotational constants (GHZ):          12.15530     0.72284     0.70282
 Zero-point vibrational energy     568714.6 (Joules/Mol)
                                  135.92605 (Kcal/Mol)
 Warning -- explicit consideration of  11 degrees of freedom as
           vibrations may cause significant error
 Vibrational temperatures:     89.17   107.57   142.59   200.34   207.23
          (Kelvin)            348.93   351.47   352.07   433.03   600.32
                              692.55  1053.13  1063.85  1115.53  1220.86
                             1267.01  1320.39  1353.59  1429.57  1481.94
                             1488.66  1530.28  1530.96  1567.90  1664.97
                             1737.50  1790.58  1821.28  1862.66  1905.99
                             1909.20  1917.88  1926.18  1975.09  2011.39
                             2011.58  2034.34  2036.36  2135.82  2136.51
                             2142.85  2150.76  2156.62  2156.71  2161.71
                             2172.86  2181.51  4308.51  4309.32  4318.40
                             4330.10  4330.52  4335.90  4339.19  4349.32
                             4349.96  4357.40  4376.66  4392.97  4434.53
                             4435.07  4441.95  4442.17

 Zero-point correction=                           0.216612 (Hartree/Particle)
 Thermal correction to Energy=                    0.226413
 Thermal correction to Enthalpy=                  0.227357
 Thermal correction to Gibbs Free Energy=         0.182332
 Sum of electronic and zero-point Energies=           -276.294861
 Sum of electronic and thermal Energies=              -276.285059
 Sum of electronic and thermal Enthalpies=            -276.284115
 Sum of electronic and thermal Free Energies=         -276.329140

                     E (Thermal)             CV                S
                      KCal/Mol        Cal/Mol-Kelvin    Cal/Mol-Kelvin
 Total                  142.076             34.289             94.764
 Electronic               0.000              0.000              0.000
 Translational            0.889              2.981             39.722
 Rotational               0.889              2.981             26.967
 Vibrational            140.299             28.328             28.075
 Vibration     1          0.597              1.972              4.393
 Vibration     2          0.599              1.966              4.024
 Vibration     3          0.604              1.950              3.472
 Vibration     4          0.615              1.914              2.814
 Vibration     5          0.616              1.909              2.750
 Vibration     6          0.659              1.775              1.784
 Vibration     7          0.660              1.772              1.771
 Vibration     8          0.660              1.772              1.768
 Vibration     9          0.693              1.672              1.412
 Vibration    10          0.780              1.433              0.901
 Vibration    11          0.838              1.291              0.706

 Optimization completed.
    -- Stationary point found.
 Normal termination of Gaussian 16 at Thu Jun 16 12:41:28 2022.
