 Gaussian 16, Revision B.01,

 ---------------------------------------
 # b3lyp/gen opt freq CPHF(Grid=OneStep)
 ---------------------------------------

 ------------------------
 n-heptane, B3LYP/pcseg-2
 ------------------------
 Symbolic Z-matrix:
 Charge =  0 Multiplicity = 1

 SCF Done:  E(RB3LYP) =  -276.511472664     A.U. after   11 cycles
 Optimization completed.
    -- Stationary point found.
 Normal termination of Gaussian 16 at Sat Sep 30 13:48:02 2023.

 ------------------------------------------------------------------
 #N Geom=AllCheck Guess=TCheck SCRF=Check GenChk RB3LYP/ChkBas Freq
 ------------------------------------------------------------------

 Structure from the checkpoint file:  "heptane.chk"
 ------------------------
 n-heptane, B3LYP/pcseg-2
 ------------------------
 Charge =  0 Multiplicity = 1

 SCF Done:  E(RB3LYP) =  -276.511472664     A.U. after    1 cycles

  Exact polarizability:  76.614   0.000 109.854   0.000  -0.000  82.153
 Approx polarizability: 116.990   0.000 117.865   0.000   0.000 118.908

                      1                      2                      3
                     B1                     A2                     A1
 Frequencies --     61.9761                74.7625                99.1068
 Red. masses --      2.7914                 1.5217                 2.9863
 Frc consts  --      0.0063                 0.0050                 0.0173
 IR Inten    --      0.0053                 0.0000                 0.0001

                      4                      5                      6
                     A2                     B1                     A2
 Frequencies --    139.2487               144.0354               242.5139
 Red. masses --      2.2390                 1.6904                 1.1019
 Frc consts  --      0.0256                 0.0207                 0.0382
 IR Inten    --      0.0000                 0.0040                 0.0000

                      7                      8                      9
                     B1                     B2                     A1
 Frequencies --    244.2786               244.6981               300.9683
 Red. masses --      1.1374                 2.6712                 3.6413
 Frc consts  --      0.0400                 0.0942                 0.1943
 IR Inten    --      0.0002                 0.0009                 0.0002

                     10                     11                     12
                     A1                     B2                     B1
 Frequencies --    417.2440               481.3428               731.9589
 Red. masses --      2.6085                 2.8955                 1.0601
 Frc consts  --      0.2676                 0.3953                 0.3346
 IR Inten    --      0.0206                 0.0924                 4.9846

                     13                     14                     15
                     A2                     B1                     A2
 Frequencies --    739.4111               775.3305               848.5380
 Red. masses --      1.0840                 1.1326                 1.1767
 Frc consts  --      0.3492                 0.4012                 0.4992
 IR Inten    --      0.0000                 1.0091                 0.0000

                     16                     17                     18
                     B2                     A1                     B1
 Frequencies --    880.6142               917.7141               940.7907
 Red. masses --      2.1318                 1.7012                 1.1776
 Frc consts  --      0.9740                 0.8442                 0.6141
 IR Inten    --      1.7616                 0.9917                 0.4960

                     19                     20                     21
                     A1                     A2                     B2
 Frequencies --    993.6006              1030.0022              1034.6733
 Red. masses --      3.9144                 1.1087                 3.2671
 Frc consts  --      2.2769                 0.6930                 2.0607
 IR Inten    --      0.0039                 0.0000                 0.2949

                     22                     23                     24
                     A1                     B2                     B2
 Frequencies --   1063.5986              1064.0801              1089.7485
 Red. masses --      2.5557                 2.2268                 1.7389
 Frc consts  --      1.7034                 1.4856                 1.2167
 IR Inten    --      0.5845                 0.0672                 2.7655

                     25                     26                     27
                     A1                     B1                     A2
 Frequencies --   1157.2119              1207.6174              1244.5189
 Red. masses --      2.6360                 1.8911                 1.4621
 Frc consts  --      2.0798                 1.6249                 1.3342
 IR Inten    --      0.7586                 0.0176                 0.0000

                     28                     29                     30
                     B2                     B1                     A1
 Frequencies --   1265.8618              1294.6156              1324.7322
 Red. masses --      1.3027                 1.2689                 1.3292
 Frc consts  --      1.2299                 1.2530                 1.3744
 IR Inten    --      1.9410                 0.2084                 0.0482

                     31                     32                     33
                     A2                     A2                     B1
 Frequencies --   1326.9694              1333.0025              1338.7670
 Red. masses --      1.0901                 1.0899                 1.0814
 Frc consts  --      1.1310                 1.1410                 1.1420
 IR Inten    --      0.0000                 0.0000                 0.8710

                     34                     35                     36
                     B2                     B2                     A1
 Frequencies --   1372.7587              1397.9902              1398.1204
 Red. masses --      1.4102                 1.5853                 1.5359
 Frc consts  --      1.5658                 1.8255                 1.7689
 IR Inten    --      1.8904                 0.9053                 0.6753

                     37                     38                     39
                     A1                     B2                     B2
 Frequencies --   1413.9388              1415.3377              1484.4677
 Red. masses --      1.2277                 1.2588                 1.0719
 Frc consts  --      1.4461                 1.4856                 1.3917
 IR Inten    --      2.4588                 1.1744                 0.2169

                     40                     41                     42
                     A1                     A1                     B2
 Frequencies --   1484.9434              1489.3524              1494.8459
 Red. masses --      1.0733                 1.0604                 1.0595
 Frc consts  --      1.3944                 1.3859                 1.3949
 IR Inten    --      0.0005                 0.0773                 1.4706

                     43                     44                     45
                     A2                     B1                     A1
 Frequencies --   1498.9306              1498.9924              1502.4596
 Red. masses --      1.0397                 1.0400                 1.0723
 Frc consts  --      1.3764                 1.3769                 1.4261
 IR Inten    --      0.0000                14.7299                 0.8573

                     46                     47                     48
                     B2                     A1                     B2
 Frequencies --   1510.2109              1516.2262              2994.5677
 Red. masses --      1.0872                 1.0962                 1.0575
 Frc consts  --      1.4610                 1.4848                 5.5872
 IR Inten    --      0.9916                12.4933                 0.0065

                     49                     50                     51
                     A1                     A1                     B2
 Frequencies --   2995.1294              3001.4434              3009.5795
 Red. masses --      1.0571                 1.0586                 1.0595
 Frc consts  --      5.5874                 5.6189                 5.6542
 IR Inten    --      0.3992                 6.9799                 0.0010

                     52                     53                     54
                     B1                     A1                     A2
 Frequencies --   3009.8626              3013.6061              3015.9005
 Red. masses --      1.0988                 1.0595                 1.1009
 Frc consts  --      5.8649                 5.6691                 5.8995
 IR Inten    --      0.0784               135.9428                 0.0000

                     55                     56                     57
                     B2                     A1                     B1
 Frequencies --   3022.9356              3023.3775              3028.5599
 Red. masses --      1.0353                 1.0357                 1.1034
 Frc consts  --      5.5741                 5.5777                 5.9631
 IR Inten    --     49.6855                41.5181                 0.1488

                     58                     59                     60
                     A2                     B1                     A2
 Frequencies --   3041.9422              3053.2674              3082.1556
 Red. masses --      1.1050                 1.1053                 1.1024
 Frc consts  --      6.0247                 6.0709                 6.1702
 IR Inten    --      0.0000                98.4454                 0.0000

                     61                     62                     63
                     B1                     B2                     A1
 Frequencies --   3082.5316              3087.3156              3087.4635
 Red. masses --      1.1024                 1.1010                 1.1008
 Frc consts  --      6.1714                 6.1827                 6.1827
 IR Inten    --    131.1551                34.3784                49.9462

 - Thermochemistry -
 -------------------
 Temperature   298.150 Kelvin.  Pressure   1.00000 Atm.
 Atom     1 has atomic number  6 and mass  12.00000

 Molecular mass:   100.12520 amu.
 Principal axes and moments of inertia in atomic units:
                           1         2         3
     Eigenvalues --   148.473532496.726062567.86904
           X            0.00000   0.00000   1.00000
           Y            1.00000   0.00000  -0.00000
           Z            0.00000   1.00000   0.00000
 This molecule is an asymmetric top.
 Rotational symmetry number  2.
 Rotational temperatures (Kelvin)      0.58336     0.03469     0.03373
 Rotational constants (GHZ):          12.15531     0.72284     0.70282
 Zero-point vibrational energy     568715.1 (Joules/Mol)
                                  135.92618 (Kcal/Mol)
 Warning -- explicit consideration of  11 degrees of freedom as
           vibrations may cause significant error
 Vibrational temperatures:     89.17   107.57   142.59   200.35   207.23
          (Kelvin)            348.92   351.46   352.07   433.03   600.32
                              692.54  1053.13  1063.85  1115.53  1220.86
                             1267.01  1320.39  1353.59  1429.57  1481.94
                             1488.66  1530.28  1530.97  1567.91  1664.97
                             1737.49  1790.59  1821.29  1862.66  1905.99
                             1909.21  1917.89  1926.19  1975.09  2011.40
                             2011.58  2034.34  2036.36  2135.82  2136.50
                             2142.85  2150.75  2156.63  2156.72  2161.70
                             2172.86  2181.51  4308.52  4309.32  4318.41
                             4330.11  4330.52  4335.91  4339.21  4349.33
                             4349.97  4357.42  4376.68  4392.97  4434.53
                             4435.08  4441.96  4442.17

 Zero-point correction=                           0.216612 (Hartree/Particle)
 Thermal correction to Energy=                    0.226413
 Thermal correction to Enthalpy=                  0.227358
 Thermal correction to Gibbs Free Energy=         0.182332
 Sum of electronic and zero-point Energies=           -276.294861
 Sum of electronic and thermal Energies=              -276.285059
 Sum of electronic and thermal Enthalpies=            -276.284115
 Sum of electronic and thermal Free Energies=         -276.329140

                     E (Thermal)             CV                S
                      KCal/Mol        Cal/Mol-Kelvin    Cal/Mol-Kelvin
 Total                  142.077             34.289             94.764
 Electronic               0.000              0.000              0.000
 Translational            0.889              2.981             39.722
 Rotational               0.889              2.981             26.967
 Vibrational            140.299             28.328             28.075
 Vibration     1          0.597              1.972              4.393
 Vibration     2          0.599              1.966              4.024
 Vibration     3          0.604              1.950              3.472
 Vibration     4          0.615              1.914              2.814
 Vibration     5          0.616              1.909              2.750
 Vibration     6          0.659              1.775              1.784
 Vibration     7          0.660              1.772              1.772
 Vibration     8          0.660              1.772              1.768
 Vibration     9          0.693              1.672              1.412
 Vibration    10          0.780              1.433              0.901
 Vibration    11          0.838              1.291              0.706

 Optimization completed.
    -- Stationary point found.
 Normal termination of Gaussian 16 at Sat Sep 30 14:19:01 2023.
 Gaussian 16:  ES64L-G16RevB.01 20-Dec-2017

 ---------------------------------
 # rohf/gen geom=check guess=check
 ---------------------------------

 ---------------------------
 n-heptane, ROHF/cc-pVTZ-F12
 ---------------------------
 Structure from the checkpoint file:  "heptane.chk"
 Charge =  0 Multiplicity = 1

                         Standard orientation:
 ---------------------------------------------------------------------
 Center     Atomic      Atomic             Coordinates (Angstroms)
 Number     Number       Type             X           Y           Z
 ---------------------------------------------------------------------
      1          6           0       -0.000000   -0.000000    0.493007
      2          6           0       -0.000000    1.280166   -0.343000
      3          6           0       -0.000000   -1.280166   -0.343000
      4          6           0       -0.000000    2.560826    0.492764
      5          6           0       -0.000000   -2.560826    0.492764
      6          6           0       -0.000000    3.834102   -0.351543
      7          6           0       -0.000000   -3.834102   -0.351543
      8          1           0       -0.874451    0.000000    1.152324
      9          1           0        0.874451   -0.000000    1.152324
     10          1           0       -0.874406    1.281350   -1.002548
     11          1           0        0.874406    1.281350   -1.002548
     12          1           0        0.874406   -1.281350   -1.002548
     13          1           0       -0.874406   -1.281350   -1.002548
     14          1           0        0.873835    2.560116    1.151303
     15          1           0       -0.873835    2.560116    1.151303
     16          1           0       -0.873835   -2.560116    1.151303
     17          1           0        0.873835   -2.560116    1.151303
     18          1           0       -0.000000    4.728398    0.273114
     19          1           0        0.880524    3.880139   -0.995646
     20          1           0       -0.880524    3.880139   -0.995646
     21          1           0       -0.000000   -4.728398    0.273114
     22          1           0       -0.880524   -3.880139   -0.995646
     23          1           0        0.880524   -3.880139   -0.995646
 ---------------------------------------------------------------------

 SCF Done:  E(ROHF) =  -274.514476869     A.U. after    9 cycles

 The electronic state is 1-A1.
 Alpha  occ. eigenvalues --  -11.21315 -11.21314 -11.21127 -11.21083 -11.21040
 Alpha  occ. eigenvalues --  -11.20735 -11.20735  -1.08707  -1.04976  -0.99037
 Alpha  occ. eigenvalues --   -0.91517  -0.83668  -0.78709  -0.78419  -0.65294
 Alpha  occ. eigenvalues --   -0.62068  -0.59092  -0.58162  -0.57374  -0.55235
 Alpha  occ. eigenvalues --   -0.52327  -0.51330  -0.50266  -0.48285  -0.47269
 Alpha  occ. eigenvalues --   -0.46157  -0.45703  -0.45617  -0.43411
 Alpha virt. eigenvalues --    0.04541   0.04728   0.05224   0.06268   0.06487
 Alpha virt. eigenvalues --    0.06607   0.07946   0.08628   0.08634   0.08825
 Alpha virt. eigenvalues --    0.09530   0.10065   0.10656   0.10956   0.11782

 Mulliken charges and spin densities:
               1          2
     1  C   -0.138436   0.000000
     2  C   -0.103702   0.000000
     3  C   -0.103702   0.000000
     4  C   -0.131727   0.000000
     5  C   -0.131727   0.000000
     6  C   -0.320606   0.000000
     7  C   -0.320606   0.000000
     8  H    0.074078   0.000000
     9  H    0.074078   0.000000
    10  H    0.069454   0.000000
    11  H    0.069454   0.000000
    12  H    0.069454   0.000000
    13  H    0.069454   0.000000
    14  H    0.075743   0.000000
    15  H    0.075743   0.000000
    16  H    0.075743   0.000000
    17  H    0.075743   0.000000
    18  H    0.087839   0.000000
    19  H    0.086470   0.000000
    20  H    0.086470   0.000000
    21  H    0.087839   0.000000
    22  H    0.086470   0.000000
    23  H    0.086470   0.000000
 Sum of Mulliken charges =  -0.00000   0.00000

 Dipole moment (field-independent basis, Debye):
    X=             -0.0000    Y=             -0.0000    Z=              0.0840  Tot=              0.0840
 Quadrupole moment (field-independent basis, Debye-Ang):
   XX=            -47.8090   YY=            -50.4656   ZZ=            -49.5246
   XY=              0.0000   XZ=             -0.0000   YZ=              0.0000

 Normal termination of Gaussian 16 at Sat Sep 30 14:24:18 2023.
