 Gaussian 16, Revision B.01,
 Gaussian 16:  ES64L-G16RevB.01 20-Dec-2017

 --------------------
 # b3lyp/gen opt freq
 --------------------

 -----------------------
 n-hexane, B3LYP/pcseg-2
 -----------------------
 Symbolic Z-matrix:
 Charge =  0 Multiplicity = 1

 SCF Done:  E(RB3LYP) =  -237.182411098     A.U. after   11 cycles
 SCF Done:  E(RB3LYP) =  -237.182582129     A.U. after    7 cycles
 SCF Done:  E(RB3LYP) =  -237.182582388     A.U. after    5 cycles
 Optimization completed.
    -- Stationary point found.
 Normal termination of Gaussian 16 at Wed Jun 15 16:31:52 2022.

 ------------------------------------------------------------------
 #N Geom=AllCheck Guess=TCheck SCRF=Check GenChk RB3LYP/ChkBas Freq
 ------------------------------------------------------------------

 Structure from the checkpoint file:  "/wrk/irikura/Gau-28224.chk"
 -----------------------
 n-hexane, B3LYP/pcseg-2
 -----------------------
 Charge =  0 Multiplicity = 1

                         Standard orientation:
 ---------------------------------------------------------------------
 Center     Atomic      Atomic             Coordinates (Angstroms)
 Number     Number       Type             X           Y           Z
 ---------------------------------------------------------------------
      1          6           0        1.409942    2.897556    0.000000
      2          6           0       -1.409942   -2.897556    0.000000
      3          6           0        0.005553    0.764388    0.000000
      4          6           0       -0.005553   -0.764388    0.000000
      5          6           0       -1.409942   -1.369687    0.000000
      6          6           0        1.409942    1.369687    0.000000
      7          1           0       -2.424797   -3.297559    0.000000
      8          1           0        2.424797    3.297559    0.000000
      9          1           0        0.898575    3.291781    0.880556
     10          1           0        0.898575    3.291781   -0.880556
     11          1           0       -0.898575   -3.291781   -0.880556
     12          1           0       -0.898575   -3.291781    0.880556
     13          1           0        1.958302    1.005193   -0.873866
     14          1           0        1.958302    1.005193    0.873866
     15          1           0       -1.958302   -1.005193   -0.873866
     16          1           0       -1.958302   -1.005193    0.873866
     17          1           0       -0.543391    1.129871    0.874471
     18          1           0       -0.543391    1.129871   -0.874471
     19          1           0        0.543391   -1.129871   -0.874471
     20          1           0        0.543391   -1.129871    0.874471
 ---------------------------------------------------------------------

 SCF Done:  E(RB3LYP) =  -237.182582388     A.U. after    1 cycles

 The electronic state is 1-AG.
 Alpha  occ. eigenvalues --  -10.16289 -10.16288 -10.16086 -10.16063 -10.15647
 Alpha  occ. eigenvalues --  -10.15647  -0.80655  -0.76849  -0.70971  -0.63976
 Alpha  occ. eigenvalues --   -0.58328  -0.57616  -0.48096  -0.44765  -0.43737
 Alpha  occ. eigenvalues --   -0.42328  -0.40146  -0.38389  -0.38070  -0.35691
 Alpha  occ. eigenvalues --   -0.34348  -0.32925  -0.32735  -0.32206  -0.31314
 Alpha virt. eigenvalues --    0.01529   0.02505   0.03689   0.03900   0.04813
 Alpha virt. eigenvalues --    0.06760   0.07259   0.08153   0.08927   0.09892
 Alpha virt. eigenvalues --    0.10441   0.11015   0.12294   0.13036   0.13713

 Mulliken charges:
               1
     1  C   -0.073035
     2  C   -0.073035
     3  C   -0.017892
     4  C   -0.017892
     5  C   -0.004134
     6  C   -0.004134
     7  H    0.029942
     8  H    0.029942
     9  H    0.018078
    10  H    0.018078
    11  H    0.018078
    12  H    0.018078
    13  H    0.009794
    14  H    0.009794
    15  H    0.009794
    16  H    0.009794
    17  H    0.004687
    18  H    0.004687
    19  H    0.004687
    20  H    0.004687
 Sum of Mulliken charges =  -0.00000

 Dipole moment (field-independent basis, Debye):
    X=              0.0000    Y=              0.0000    Z=             -0.0000  Tot=              0.0000
 Quadrupole moment (field-independent basis, Debye-Ang):
   XX=            -42.5619   YY=            -43.8541   ZZ=            -41.4592
   XY=             -0.0302   XZ=              0.0000   YZ=              0.0000

  Exact polarizability:  75.886   8.903  88.364  -0.000  -0.000  66.827
 Approx polarizability: 101.832  -0.403 101.951   0.000  -0.000 100.741

                      1                      2                      3
                     AU                     AU                     BU
 Frequencies --     73.3425                99.3339               130.4189
 Red. masses --      2.3187                 1.5913                 2.7797
 Frc consts  --      0.0073                 0.0093                 0.0279
 IR Inten    --      0.0174                 0.0017                 0.0016

                      4                      5                      6
                     BG                     BG                     AU
 Frequencies --    148.2903               237.0669               248.4351
 Red. masses --      2.0155                 1.0836                 1.1405
 Frc consts  --      0.0261                 0.0359                 0.0415
 IR Inten    --      0.0000                 0.0000                 0.0002

                      7                      8                      9
                     AG                     AG                     BU
 Frequencies --    296.2999               365.9657               465.9503
 Red. masses --      2.6229                 3.4046                 2.5581
 Frc consts  --      0.1357                 0.2687                 0.3272
 IR Inten    --      0.0000                 0.0000                 0.0545

                     10                     11                     12
                     AU                     BG                     AU
 Frequencies --    732.4467               747.8640               809.3099
 Red. masses --      1.0622                 1.0958                 1.1508
 Frc consts  --      0.3358                 0.3611                 0.4441
 IR Inten    --      4.3933                 0.0000                 0.9956

                     13                     14                     15
                     BU                     AG                     BG
 Frequencies --    887.9908               907.6449               909.7807
 Red. masses --      2.2985                 1.6304                 1.1719
 Frc consts  --      1.0679                 0.7913                 0.5715
 IR Inten    --      2.5894                 0.0000                 0.0000

                     16                     17                     18
                     AG                     AU                     BU
 Frequencies --   1009.1719              1016.0566              1049.9010
 Red. masses --      3.9333                 1.1174                 2.5643
 Frc consts  --      2.3601                 0.6797                 1.6654
 IR Inten    --      0.0000                 0.2996                 0.0778

                     19                     20                     21
                     AG                     BU                     AG
 Frequencies --   1066.1191              1076.9801              1159.5076
 Red. masses --      2.2741                 1.7602                 2.4816
 Frc consts  --      1.5229                 1.2029                 1.9658
 IR Inten    --      0.0000                 4.0760                 0.0000

                     22                     23                     24
                     BG                     AU                     BU
 Frequencies --   1208.3944              1254.6737              1278.7260
 Red. masses --      1.8598                 1.4003                 1.3060
 Frc consts  --      1.6000                 1.2988                 1.2582
 IR Inten    --      0.0000                 0.0227                 2.1403

                     25                     26                     27
                     BG                     BG                     AU
 Frequencies --   1309.7954              1332.1143              1336.7371
 Red. masses --      1.2090                 1.0408                 1.1073
 Frc consts  --      1.2221                 1.0882                 1.1657
 IR Inten    --      0.0000                 0.0000                 0.9625

                     28                     29                     30
                     AG                     BU                     AG
 Frequencies --   1345.9164              1390.4522              1397.5632
 Red. masses --      1.3595                 1.4806                 1.5786
 Frc consts  --      1.4510                 1.6865                 1.8167
 IR Inten    --      0.0000                 2.4085                 0.0000

                     31                     32                     33
                     BU                     AG                     AG
 Frequencies --   1412.9619              1415.9691              1485.1295
 Red. masses --      1.2329                 1.2518                 1.0732
 Frc consts  --      1.4502                 1.4787                 1.3946
 IR Inten    --      4.3768                 0.0000                 0.0000

                     34                     35                     36
                     BU                     AG                     AU
 Frequencies --   1485.9519              1492.3661              1498.8132
 Red. masses --      1.0666                 1.0536                 1.0401
 Frc consts  --      1.3875                 1.3825                 1.3767
 IR Inten    --      0.5225                 0.0000                14.7361

                     37                     38                     39
                     BG                     BU                     AG
 Frequencies --   1499.0370              1499.5017              1508.4897
 Red. masses --      1.0396                 1.0639                 1.0825
 Frc consts  --      1.3764                 1.4095                 1.4513
 IR Inten    --      0.0000                 2.3897                 0.0000

                     40                     41                     42
                     BU                     AG                     BU
 Frequencies --   1515.6150              2994.7739              2997.9668
 Red. masses --      1.0949                 1.0572                 1.0579
 Frc consts  --      1.4819                 5.5864                 5.6022
 IR Inten    --     11.7096                 0.0000                 6.0918

                     43                     44                     45
                     AG                     BG                     BU
 Frequencies --   3009.0292              3010.8354              3013.5498
 Red. masses --      1.0595                 1.0992                 1.0592
 Frc consts  --      5.6522                 5.8706                 5.6674
 IR Inten    --      0.0000                 0.0000               102.8157

                     46                     47                     48
                     AU                     BU                     AG
 Frequencies --   3021.6497              3023.1492              3023.3399
 Red. masses --      1.1018                 1.0357                 1.0354
 Frc consts  --      5.9271                 5.5772                 5.5760
 IR Inten    --      0.0431                91.6777                 0.0000

                     49                     50                     51
                     BG                     AU                     BG
 Frequencies --   3037.9149              3051.4488              3082.1306
 Red. masses --      1.1044                 1.1052                 1.1025
 Frc consts  --      6.0050                 6.0631                 6.1704
 IR Inten    --      0.0000                69.2386                 0.0000

                     52                     53                     54
                     AU                     AG                     BU
 Frequencies --   3082.8791              3087.5078              3087.5197
 Red. masses --      1.1023                 1.1009                 1.1009
 Frc consts  --      6.1728                 6.1830                 6.1834
 IR Inten    --    128.9535                 0.0000                83.4302

 - Thermochemistry -
 -------------------
 Temperature   298.150 Kelvin.  Pressure   1.00000 Atm.
 Atom     1 has atomic number  6 and mass  12.00000

 Molecular mass:    86.10955 amu.
 Principal axes and moments of inertia in atomic units:
                           1         2         3
     Eigenvalues --   122.687401595.423681651.78221
           X            0.49759   0.86741   0.00000
           Y            0.86741  -0.49759   0.00000
           Z           -0.00000   0.00000   1.00000
 This molecule is an asymmetric top.
 Rotational symmetry number  2.
 Rotational temperatures (Kelvin)      0.70597     0.05429     0.05244
 Rotational constants (GHZ):          14.71008     1.13120     1.09260
 Zero-point vibrational energy     494235.8 (Joules/Mol)
                                  118.12520 (Kcal/Mol)
 Warning -- explicit consideration of   9 degrees of freedom as
           vibrations may cause significant error
 Vibrational temperatures:    105.52   142.92   187.64   213.36   341.09
          (Kelvin)            357.44   426.31   526.54   670.40  1053.83
                             1076.01  1164.42  1277.62  1305.90  1308.97
                             1451.97  1461.88  1510.57  1533.91  1549.53
                             1668.27  1738.61  1805.20  1839.80  1884.50
                             1916.62  1923.27  1936.47  2000.55  2010.78
                             2032.94  2037.26  2136.77  2137.95  2147.18
                             2156.46  2156.78  2157.45  2170.38  2180.63
                             4308.81  4313.41  4329.32  4331.92  4335.83
                             4347.48  4349.64  4349.91  4370.88  4390.35
                             4434.50  4435.58  4442.24  4442.25

 Zero-point correction=                           0.188244 (Hartree/Particle)
 Thermal correction to Energy=                    0.196695
 Thermal correction to Enthalpy=                  0.197639
 Thermal correction to Gibbs Free Energy=         0.156243
 Sum of electronic and zero-point Energies=           -236.994338
 Sum of electronic and thermal Energies=              -236.985887
 Sum of electronic and thermal Enthalpies=            -236.984943
 Sum of electronic and thermal Free Energies=         -237.026340

                     E (Thermal)             CV                S
                      KCal/Mol        Cal/Mol-Kelvin    Cal/Mol-Kelvin
 Total                  123.428             29.425             87.127
 Electronic               0.000              0.000              0.000
 Translational            0.889              2.981             39.272
 Rotational               0.889              2.981             25.894
 Vibrational            121.651             23.463             21.961
 Vibration     1          0.599              1.967              4.062
 Vibration     2          0.604              1.950              3.467
 Vibration     3          0.612              1.923              2.940
 Vibration     4          0.618              1.905              2.694
 Vibration     5          0.656              1.784              1.825
 Vibration     6          0.662              1.765              1.742
 Vibration     7          0.690              1.681              1.438
 Vibration     8          0.739              1.542              1.097
 Vibration     9          0.823              1.326              0.749

 Optimization completed.
    -- Stationary point found.
 Normal termination of Gaussian 16 at Wed Jun 15 16:37:02 2022.
