 Gaussian 16, Revision B.01,
 Gaussian 16:  ES64L-G16RevB.01 20-Dec-2017

 --------------------
 # opt freq b3lyp/gen
 --------------------

 ----------------------------
 1,3-hexadiyne, B3LYP/pcseg-2
 ----------------------------
 Symbolic Z-matrix:
 Charge =  0 Multiplicity = 1

 SCF Done:  E(RB3LYP) =  -232.220764346     A.U. after   14 cycles
 SCF Done:  E(RB3LYP) =  -232.220847548     A.U. after   10 cycles
 SCF Done:  E(RB3LYP) =  -232.220743370     A.U. after   10 cycles
 SCF Done:  E(RB3LYP) =  -232.220849839     A.U. after   10 cycles
 SCF Done:  E(RB3LYP) =  -232.220854512     A.U. after    9 cycles
 Optimization completed.
    -- Stationary point found.
 Normal termination of Gaussian 16 at Thu Jun 16 18:21:50 2022.

 ------------------------------------------------------------------
 #N Geom=AllCheck Guess=TCheck SCRF=Check GenChk RB3LYP/ChkBas Freq
 ------------------------------------------------------------------

 Structure from the checkpoint file:  "/wrk/irikura/Gau-24335.chk"
 ----------------------------
 1,3-hexadiyne, B3LYP/pcseg-2
 ----------------------------
 Charge =  0 Multiplicity = 1

                         Standard orientation:
 ---------------------------------------------------------------------
 Center     Atomic      Atomic             Coordinates (Angstroms)
 Number     Number       Type             X           Y           Z
 ---------------------------------------------------------------------
      1          6           0        2.144905   -2.559260    0.000000
      2          6           0        1.458804   -1.568089    0.000000
      3          6           0        0.683440   -0.446880    0.000000
      4          6           0        0.000000    0.548821    0.000000
      5          6           0       -0.841702    1.734703    0.000000
      6          6           0       -2.345113    1.413513    0.000000
      7          1           0        2.748386   -3.431903    0.000000
      8          1           0       -0.594491    2.343853    0.874020
      9          1           0       -0.594491    2.343853   -0.874020
     10          1           0       -2.924931    2.336343    0.000000
     11          1           0       -2.618240    0.835505    0.881659
     12          1           0       -2.618240    0.835505   -0.881659
 ---------------------------------------------------------------------

 SCF Done:  E(RB3LYP) =  -232.220854512     A.U. after    1 cycles

 The electronic state is 1-A'.
 Alpha  occ. eigenvalues --  -10.20818 -10.19436 -10.19104 -10.18599 -10.18229
 Alpha  occ. eigenvalues --  -10.17848  -0.81961  -0.78673  -0.73441  -0.66189
 Alpha  occ. eigenvalues --   -0.60914  -0.52370  -0.49047  -0.47391  -0.41678
 Alpha  occ. eigenvalues --   -0.38728  -0.38113  -0.34831  -0.34687  -0.25527
 Alpha  occ. eigenvalues --   -0.25445
 Alpha virt. eigenvalues --   -0.02687  -0.02414   0.01117   0.04058   0.04447
 Alpha virt. eigenvalues --    0.05519   0.06585   0.09052   0.09178   0.11799
 Alpha virt. eigenvalues --    0.12996   0.13412   0.13646   0.15108   0.16888

 Mulliken charges:
               1
     1  C   -0.198874
     2  C    0.105693
     3  C   -0.099359
     4  C    0.039984
     5  C   -0.036987
     6  C   -0.054196
     7  H    0.047055
     8  H    0.048728
     9  H    0.048728
    10  H    0.030053
    11  H    0.034587
    12  H    0.034587
 Sum of Mulliken charges =  -0.00000

 Dipole moment (field-independent basis, Debye):
    X=             -0.9184    Y=              1.0730    Z=             -0.0000  Tot=              1.4123
 Quadrupole moment (field-independent basis, Debye-Ang):
   XX=            -34.1249   YY=            -29.6811   ZZ=            -37.3137
   XY=             -5.2211   XZ=             -0.0000   YZ=              0.0000

  Exact polarizability:  80.905 -42.503 101.416   0.000  -0.000  44.035
 Approx polarizability: 117.637 -78.309 174.511  -0.000   0.000  61.697

                      1                      2                      3
                     A'                     A"                     A"
 Frequencies --    100.4437               132.2891               232.5728
 Red. masses --      3.7379                 2.3995                 1.3182
 Frc consts  --      0.0222                 0.0247                 0.0420
 IR Inten    --      2.5387                 5.1452                 1.0092

                      4                      5                      6
                     A'                     A"                     A'
 Frequencies --    241.8520               354.4249               466.5762
 Red. masses --      4.2914                 3.0886                 5.1582
 Frc consts  --      0.1479                 0.2286                 0.6616
 IR Inten    --      2.0133                 0.2117                 0.3114

                      7                      8                      9
                     A"                     A'                     A"
 Frequencies --    530.1443               551.4537               646.1650
 Red. masses --      8.5438                 8.1199                 1.2582
 Frc consts  --      1.4148                 1.4548                 0.3095
 IR Inten    --      0.6480                 1.1698                52.5057

                     10                     11                     12
                     A'                     A'                     A"
 Frequencies --    649.3764               673.9607               787.4258
 Red. masses --      1.2617                 3.6664                 1.1856
 Frc consts  --      0.3135                 0.9812                 0.4331
 IR Inten    --     51.3455                 0.9122                 1.9223

                     13                     14                     15
                     A'                     A'                     A"
 Frequencies --    953.9326              1077.1170              1104.3864
 Red. masses --      2.5144                 1.8728                 1.4705
 Frc consts  --      1.3481                 1.2802                 1.0567
 IR Inten    --      0.0342                 4.7712                 0.2009

                     16                     17                     18
                     A'                     A"                     A'
 Frequencies --   1174.3361              1286.0757              1350.1719
 Red. masses --      3.5354                 1.1447                 1.5288
 Frc consts  --      2.8726                 1.1155                 1.6421
 IR Inten    --      2.2888                 0.0130                19.2058

                     19                     20                     21
                     A'                     A'                     A"
 Frequencies --   1413.2675              1472.9301              1495.5596
 Red. masses --      1.2036                 1.0761                 1.0387
 Frc consts  --      1.4164                 1.3756                 1.3689
 IR Inten    --      2.0944                 4.8421                 7.3637

                     22                     23                     24
                     A'                     A'                     A'
 Frequencies --   1504.9374              2161.8533              2335.5842
 Red. masses --      1.0557                 6.6722                10.7971
 Frc consts  --      1.4088                18.3726                34.7016
 IR Inten    --      3.4058                 8.0171                37.6172

                     25                     26                     27
                     A'                     A"                     A'
 Frequencies --   3018.2964              3042.9082              3043.7116
 Red. masses --      1.0585                 1.1017                 1.0340
 Frc consts  --      5.6815                 6.0102                 5.6440
 IR Inten    --     17.7801                 4.6862                32.2985

                     28                     29                     30
                     A'                     A"                     A'
 Frequencies --   3111.5306              3117.4759              3473.7444
 Red. masses --      1.1025                 1.1036                 1.1528
 Frc consts  --      6.2889                 6.3191                 8.1962
 IR Inten    --     26.8329                20.7048               113.4615

 - Thermochemistry -
 -------------------
 Temperature   298.150 Kelvin.  Pressure   1.00000 Atm.
 Atom     1 has atomic number  6 and mass  12.00000

 Molecular mass:    78.04695 amu.
 Principal axes and moments of inertia in atomic units:
                           1         2         3
     Eigenvalues --    81.837051350.083571409.73297
           X           -0.69441   0.71958   0.00000
           Y            0.71958   0.69441   0.00000
           Z           -0.00000   0.00000   1.00000
 This molecule is an asymmetric top.
 Rotational symmetry number  1.
 Rotational temperatures (Kelvin)      1.05837     0.06415     0.06144
 Rotational constants (GHZ):          22.05286     1.33676     1.28020
 Zero-point vibrational energy     248252.1 (Joules/Mol)
                                   59.33367 (Kcal/Mol)
 Warning -- explicit consideration of   8 degrees of freedom as
           vibrations may cause significant error
 Vibrational temperatures:    144.52   190.33   334.62   347.97   509.94
          (Kelvin)            671.30   762.76   793.42   929.69   934.31
                              969.68  1132.93  1372.50  1549.73  1588.97
                             1689.61  1850.38  1942.60  2033.38  2119.22
                             2151.78  2165.27  3110.42  3360.38  4342.66
                             4378.07  4379.22  4476.80  4485.35  4997.94

 Zero-point correction=                           0.094554 (Hartree/Particle)
 Thermal correction to Energy=                    0.101437
 Thermal correction to Enthalpy=                  0.102382
 Thermal correction to Gibbs Free Energy=         0.064251
 Sum of electronic and zero-point Energies=           -232.126300
 Sum of electronic and thermal Energies=              -232.119417
 Sum of electronic and thermal Enthalpies=            -232.118473
 Sum of electronic and thermal Free Energies=         -232.156603

                     E (Thermal)             CV                S
                      KCal/Mol        Cal/Mol-Kelvin    Cal/Mol-Kelvin
 Total                   63.653             23.878             80.252
 Electronic               0.000              0.000              0.000
 Translational            0.889              2.981             38.979
 Rotational               0.889              2.981             26.546
 Vibrational             61.875             17.917             14.727
 Vibration     1          0.604              1.949              3.446
 Vibration     2          0.612              1.921              2.912
 Vibration     3          0.653              1.791              1.859
 Vibration     4          0.658              1.776              1.789
 Vibration     5          0.730              1.566              1.146
 Vibration     6          0.824              1.324              0.747
 Vibration     7          0.885              1.183              0.587
 Vibration     8          0.907              1.137              0.541

 Optimization completed.
    -- Stationary point found.
 Normal termination of Gaussian 16 at Thu Jun 16 18:24:02 2022.
