 Gaussian 16, Revision B.01,

 ---------------------------------------
 # b3lyp/gen opt freq CPHF(Grid=OneStep)
 ---------------------------------------

 ----------------------------
 1,5-hexadiene, B3LYP/pcseg-2
 ----------------------------
 Symbolic Z-matrix:
 Charge =  0 Multiplicity = 1

 SCF Done:  E(RB3LYP) =  -234.711538913     A.U. after   12 cycles
 Optimization completed.
    -- Stationary point found.
 Normal termination of Gaussian 16 at Fri Sep 29 17:50:54 2023.

 ------------------------------------------------------------------
 #N Geom=AllCheck Guess=TCheck SCRF=Check GenChk RB3LYP/ChkBas Freq
 ------------------------------------------------------------------

 Structure from the checkpoint file:  "hexadiene15.chk"
 ----------------------------
 1,5-hexadiene, B3LYP/pcseg-2
 ----------------------------
 Charge =  0 Multiplicity = 1

 SCF Done:  E(RB3LYP) =  -234.711538913     A.U. after    1 cycles

  Exact polarizability:  59.408  -7.978  97.878  -0.000   0.000  69.369
 Approx polarizability:  84.731  -6.295 119.382  -0.000  -0.000 109.284

                      1                      2                      3
                      A                      A                      B
 Frequencies --     74.6291                97.6798               114.6397
 Red. masses --      2.9760                 1.9373                 2.5112
 Frc consts  --      0.0098                 0.0109                 0.0194
 IR Inten    --      0.0453                 0.0475                 0.1430

                      4                      5                      6
                      B                      A                      A
 Frequencies --    217.9967               349.9244               416.3225
 Red. masses --      1.9167                 2.6563                 2.0378
 Frc consts  --      0.0537                 0.1916                 0.2081
 IR Inten    --      0.2217                 0.1061                 0.0221

                      7                      8                      9
                      B                      A                      B
 Frequencies --    440.7211               634.2428               666.8978
 Red. masses --      1.8161                 1.4708                 1.4846
 Frc consts  --      0.2078                 0.3486                 0.3890
 IR Inten    --      1.9888                 8.0592                22.2994

                     10                     11                     12
                      A                      B                      A
 Frequencies --    788.1267               932.7545               948.4924
 Red. masses --      1.2328                 2.3216                 1.4970
 Frc consts  --      0.4512                 1.1901                 0.7935
 IR Inten    --      0.3292                 0.8206                11.9795

                     13                     14                     15
                      B                      A                      B
 Frequencies --    953.3715               959.0658               966.0993
 Red. masses --      1.3161                 1.5082                 1.4037
 Frc consts  --      0.7048                 0.8173                 0.7719
 IR Inten    --     72.8389                11.4029                 5.3288

                     16                     17                     18
                      A                      A                      B
 Frequencies --   1022.2102              1033.5255              1037.1424
 Red. masses --      3.1435                 1.1035                 1.1361
 Frc consts  --      1.9353                 0.6945                 0.7200
 IR Inten    --      3.5226                 6.0862                22.1216

                     19                     20                     21
                      A                      B                      A
 Frequencies --   1093.2571              1180.6175              1244.7772
 Red. masses --      1.5467                 2.0776                 1.4574
 Frc consts  --      1.0892                 1.7062                 1.3305
 IR Inten    --      0.0297                 1.7665                 0.0102

                     22                     23                     24
                      B                      B                      A
 Frequencies --   1279.5841              1311.1766              1329.3355
 Red. masses --      1.2759                 1.1061                 1.2427
 Frc consts  --      1.2309                 1.1204                 1.2939
 IR Inten    --      2.8280                 0.6650                 0.7740

                     25                     26                     27
                      B                      A                      A
 Frequencies --   1334.0024              1362.1416              1454.9671
 Red. masses --      1.2629                 1.4005                 1.1646
 Frc consts  --      1.3241                 1.5310                 1.4525
 IR Inten    --      0.5006                 0.3607                 2.0888

                     28                     29                     30
                      B                      A                      B
 Frequencies --   1459.3138              1480.9224              1495.1969
 Red. masses --      1.1761                 1.1207                 1.1084
 Frc consts  --      1.4757                 1.4481                 1.4599
 IR Inten    --      0.1542                 3.7396                 9.2522

                     31                     32                     33
                      A                      B                      A
 Frequencies --   1702.8324              1705.7760              3001.7117
 Red. masses --      4.5079                 4.5706                 1.0623
 Frc consts  --      7.7014                 7.8355                 5.6393
 IR Inten    --      6.8785                27.2900                 8.3963

                     34                     35                     36
                      B                      B                      A
 Frequencies --   3004.6969              3052.1935              3069.2516
 Red. masses --      1.0702                 1.0894                 1.0990
 Frc consts  --      5.6927                 5.9797                 6.0999
 IR Inten    --     32.7156                 9.1966                20.6157

                     37                     38                     39
                      B                      A                      B
 Frequencies --   3118.0630              3118.4189              3132.4671
 Red. masses --      1.0831                 1.0833                 1.0653
 Frc consts  --      6.2042                 6.2069                 6.1590
 IR Inten    --     12.6746                35.3589                 7.3428

                     40                     41                     42
                      A                      B                      A
 Frequencies --   3132.6843              3214.3061              3214.3804
 Red. masses --      1.0656                 1.1151                 1.1151
 Frc consts  --      6.1614                 6.7881                 6.7884
 IR Inten    --      2.8354                24.8546                 7.3357

 - Thermochemistry -
 -------------------
 Temperature   298.150 Kelvin.  Pressure   1.00000 Atm.
 Atom     1 has atomic number  6 and mass  12.00000

 Molecular mass:    82.07825 amu.
 Principal axes and moments of inertia in atomic units:
                           1         2         3
     Eigenvalues --   137.910811301.907041335.71437
           X           -0.15223  -0.00000   0.98834
           Y            0.98834  -0.00000   0.15223
           Z            0.00000   1.00000   0.00000
 This molecule is an asymmetric top.
 Rotational symmetry number  2.
 Rotational temperatures (Kelvin)      0.62804     0.06653     0.06484
 Rotational constants (GHZ):          13.08629     1.38623     1.35114
 Zero-point vibrational energy     371715.1 (Joules/Mol)
                                   88.84205 (Kcal/Mol)
 Warning -- explicit consideration of   7 degrees of freedom as
           vibrations may cause significant error
 Vibrational temperatures:    107.37   140.54   164.94   313.65   503.46
          (Kelvin)            599.00   634.10   912.53   959.52  1133.94
                             1342.03  1364.67  1371.69  1379.88  1390.00
                             1470.73  1487.01  1492.22  1572.95  1698.65
                             1790.96  1841.04  1886.49  1912.62  1919.33
                             1959.82  2093.37  2099.63  2130.72  2151.25
                             2450.00  2454.23  4318.79  4323.09  4391.43
                             4415.97  4486.20  4486.71  4506.92  4507.23
                             4624.67  4624.78

 Zero-point correction=                           0.141579 (Hartree/Particle)
 Thermal correction to Energy=                    0.148908
 Thermal correction to Enthalpy=                  0.149852
 Thermal correction to Gibbs Free Energy=         0.110691
 Sum of electronic and zero-point Energies=           -234.569960
 Sum of electronic and thermal Energies=              -234.562631
 Sum of electronic and thermal Enthalpies=            -234.561687
 Sum of electronic and thermal Free Energies=         -234.600848

                     E (Thermal)             CV                S
                      KCal/Mol        Cal/Mol-Kelvin    Cal/Mol-Kelvin
 Total                   93.441             25.517             82.420
 Electronic               0.000              0.000              0.000
 Translational            0.889              2.981             39.129
 Rotational               0.889              2.981             25.597
 Vibrational             91.663             19.555             17.693
 Vibration     1          0.599              1.966              4.027
 Vibration     2          0.603              1.951              3.500
 Vibration     3          0.608              1.937              3.189
 Vibration     4          0.646              1.814              1.976
 Vibration     5          0.727              1.575              1.167
 Vibration     6          0.780              1.435              0.905
 Vibration     7          0.801              1.381              0.824

                           ! Non-Optimized Parameters !
 Normal termination of Gaussian 16 at Fri Sep 29 18:07:16 2023.
 Gaussian 16:  ES64L-G16RevB.01 20-Dec-2017

 ---------------------------------
 # rohf/gen geom=check guess=check
 ---------------------------------

 -------------------------------
 1,5-hexadiene, ROHF/cc-pVTZ-F12
 -------------------------------
 Structure from the checkpoint file:  "hexadiene15.chk"
 Charge =  0 Multiplicity = 1

                         Standard orientation:
 ---------------------------------------------------------------------
 Center     Atomic      Atomic             Coordinates (Angstroms)
 Number     Number       Type             X           Y           Z
 ---------------------------------------------------------------------
      1          6           0        0.420769    0.646656   -0.285864
      2          6           0       -0.420769   -0.646656   -0.285864
      3          1           0        1.084915    0.627011   -1.156909
      4          1           0        1.061836    0.664560    0.597699
      5          1           0       -1.084915   -0.627011   -1.156909
      6          1           0       -1.061836   -0.664560    0.597699
      7          6           0       -0.420769    1.885767   -0.334176
      8          1           0       -1.071413    1.982028   -1.199778
      9          6           0       -0.433554    2.841560    0.586472
     10          1           0        0.195526    2.789073    1.467214
     11          1           0       -1.069083    3.711857    0.493178
     12          6           0        0.420769   -1.885767   -0.334176
     13          1           0        1.071413   -1.982028   -1.199778
     14          6           0        0.433554   -2.841560    0.586472
     15          1           0       -0.195526   -2.789073    1.467214
     16          1           0        1.069083   -3.711857    0.493178
 ---------------------------------------------------------------------

 SCF Done:  E(ROHF) =  -233.082523053     A.U. after   10 cycles

 The electronic state is 1-A.
 Alpha  occ. eigenvalues --  -11.23212 -11.23211 -11.22829 -11.22772 -11.21864
 Alpha  occ. eigenvalues --  -11.21864  -1.09933  -1.05202  -0.97444  -0.86724
 Alpha  occ. eigenvalues --   -0.76110  -0.75696  -0.65785  -0.62913  -0.60273
 Alpha  occ. eigenvalues --   -0.59625  -0.55055  -0.51749  -0.51218  -0.48757
 Alpha  occ. eigenvalues --   -0.47405  -0.37163  -0.35440
 Alpha virt. eigenvalues --    0.04736   0.04935   0.05166   0.05304   0.06907
 Alpha virt. eigenvalues --    0.07259   0.08489   0.08574   0.09152   0.09666
 Alpha virt. eigenvalues --    0.10490   0.10695   0.11537   0.12667   0.13936

 Mulliken charges and spin densities:
               1          2
     1  C   -0.105629   0.000000
     2  C   -0.105629   0.000000
     3  H    0.076843   0.000000
     4  H    0.073122   0.000000
     5  H    0.076843   0.000000
     6  H    0.073122   0.000000
     7  C   -0.117684   0.000000
     8  H    0.148640   0.000000
     9  C   -0.355599   0.000000
    10  H    0.133299   0.000000
    11  H    0.147009   0.000000
    12  C   -0.117684   0.000000
    13  H    0.148640   0.000000
    14  C   -0.355599   0.000000
    15  H    0.133299   0.000000
    16  H    0.147009   0.000000
 Sum of Mulliken charges =  -0.00000   0.00000

 Dipole moment (field-independent basis, Debye):
    X=             -0.0000    Y=              0.0000    Z=             -0.2631  Tot=              0.2631
 Quadrupole moment (field-independent basis, Debye-Ang):
   XX=            -40.2653   YY=            -40.5687   ZZ=            -37.5854
   XY=             -1.5523   XZ=              0.0000   YZ=             -0.0000

 Normal termination of Gaussian 16 at Fri Sep 29 18:11:17 2023.
