 Gaussian 16, Revision B.01,
 Gaussian 16:  ES64L-G16RevB.01 20-Dec-2017

 --------------------
 # b3lyp/gen opt freq
 --------------------

 ----------------------------
 1,5-hexadiyne, B3LYP/pcseg-2
 ----------------------------
 Symbolic Z-matrix:
 Charge =  0 Multiplicity = 1

 SCF Done:  E(RB3LYP) =  -232.204171418     A.U. after   13 cycles
 SCF Done:  E(RB3LYP) =  -232.204208288     A.U. after   10 cycles
 SCF Done:  E(RB3LYP) =  -232.203632242     A.U. after   10 cycles
 SCF Done:  E(RB3LYP) =  -232.204265594     A.U. after    9 cycles
 Optimization completed.
    -- Stationary point found.
 Normal termination of Gaussian 16 at Thu Jun 16 15:13:14 2022.

 ------------------------------------------------------------------
 #N Geom=AllCheck Guess=TCheck SCRF=Check GenChk RB3LYP/ChkBas Freq
 ------------------------------------------------------------------

 Structure from the checkpoint file:  "/wrk/irikura/Gau-19239.chk"
 ----------------------------
 1,5-hexadiyne, B3LYP/pcseg-2
 ----------------------------
 Charge =  0 Multiplicity = 1

                         Standard orientation:
 ---------------------------------------------------------------------
 Center     Atomic      Atomic             Coordinates (Angstroms)
 Number     Number       Type             X           Y           Z
 ---------------------------------------------------------------------
      1          6           0        0.417659    0.651988    0.000000
      2          6           0       -0.417659   -0.651988    0.000000
      3          6           0       -0.417659    1.845190    0.000000
      4          6           0       -1.124721    2.814098    0.000000
      5          6           0        0.417659   -1.845190    0.000000
      6          6           0        1.124721   -2.814098    0.000000
      7          1           0       -1.741667    3.677670    0.000000
      8          1           0        1.741667   -3.677670    0.000000
      9          1           0        1.070665    0.658633    0.875076
     10          1           0       -1.070665   -0.658633   -0.875076
     11          1           0        1.070665    0.658633   -0.875076
     12          1           0       -1.070665   -0.658633    0.875076
 ---------------------------------------------------------------------

 SCF Done:  E(RB3LYP) =  -232.204265594     A.U. after    1 cycles

 The electronic state is 1-AG.
 Alpha  occ. eigenvalues --  -10.21045 -10.21025 -10.18066 -10.18066 -10.16913
 Alpha  occ. eigenvalues --  -10.16913  -0.83178  -0.77012  -0.72936  -0.67168
 Alpha  occ. eigenvalues --   -0.54407  -0.53678  -0.49480  -0.48731  -0.44697
 Alpha  occ. eigenvalues --   -0.41520  -0.39962  -0.29462  -0.28363  -0.28172
 Alpha  occ. eigenvalues --   -0.27735
 Alpha virt. eigenvalues --    0.00808   0.01430   0.01904   0.03648   0.04194
 Alpha virt. eigenvalues --    0.04595   0.04709   0.05004   0.06614   0.08962
 Alpha virt. eigenvalues --    0.10158   0.12791   0.15218   0.16895   0.17553

 Mulliken charges:
               1
     1  C   -0.001588
     2  C   -0.001588
     3  C    0.189621
     4  C   -0.338616
     5  C    0.189621
     6  C   -0.338616
     7  H    0.038163
     8  H    0.038163
     9  H    0.056210
    10  H    0.056210
    11  H    0.056210
    12  H    0.056210
 Sum of Mulliken charges =  -0.00000

 Dipole moment (field-independent basis, Debye):
    X=              0.0000    Y=             -0.0000    Z=             -0.0000  Tot=              0.0000
 Quadrupole moment (field-independent basis, Debye-Ang):
   XX=            -34.4118   YY=            -34.0296   ZZ=            -37.5854
   XY=             -3.7069   XZ=              0.0000   YZ=             -0.0000

  Exact polarizability:  62.523 -24.800  92.477   0.000   0.000  44.273
 Approx polarizability:  95.866 -42.732 126.281  -0.000   0.000  63.311

                      1                      2                      3
                     AU                     BU                     AG
 Frequencies --     76.9648               125.2688               218.0100
 Red. masses --      3.3236                 3.6616                 4.3795
 Frc consts  --      0.0116                 0.0339                 0.1226
 IR Inten    --      0.0988                 0.2060                 0.0000

                      4                      5                      6
                     BG                     AU                     AG
 Frequencies --    334.5088               374.2358               493.3199
 Red. masses --      2.9280                 2.7718                 6.7864
 Frc consts  --      0.1930                 0.2287                 0.9731
 IR Inten    --      0.0000                19.1464                 0.0000

                      7                      8                      9
                     BU                     BG                     AU
 Frequencies --    500.7545               672.9481               673.6591
 Red. masses --      4.6004                 1.2586                 1.2586
 Frc consts  --      0.6797                 0.3358                 0.3365
 IR Inten    --     25.3097                 0.0000               103.8009

                     10                     11                     12
                     AG                     BU                     AU
 Frequencies --    686.6398               686.9783               769.3923
 Red. masses --      1.2815                 1.2686                 1.2240
 Frc consts  --      0.3560                 0.3528                 0.4269
 IR Inten    --      0.0000                96.9770                 0.2341

                     13                     14                     15
                     BU                     AG                     AG
 Frequencies --    948.1412               971.6864              1015.3561
 Red. masses --      4.4824                 4.9251                 3.1675
 Frc consts  --      2.3741                 2.7398                 1.9240
 IR Inten    --      2.7635                 0.0000                 0.0000

                     16                     17                     18
                     BG                     AU                     BU
 Frequencies --   1036.7879              1204.0467              1291.0294
 Red. masses --      1.8060                 1.1282                 1.3123
 Frc consts  --      1.1438                 0.9637                 1.2887
 IR Inten    --      0.0000                 0.0171                 9.8982

                     19                     20                     21
                     BG                     AG                     AG
 Frequencies --   1311.1256              1369.6115              1475.2074
 Red. masses --      1.0852                 1.4192                 1.0830
 Frc consts  --      1.0991                 1.5685                 1.3886
 IR Inten    --      0.0000                 0.0000                 0.0000

                     22                     23                     24
                     BU                     AG                     BU
 Frequencies --   1484.6862              2218.8957              2220.9260
 Red. masses --      1.0913                 5.9616                 5.9975
 Frc consts  --      1.4173                17.2936                17.4296
 IR Inten    --      8.1688                 0.0000                16.8617

                     25                     26                     27
                     AG                     BU                     BG
 Frequencies --   3033.9743              3043.5311              3059.5587
 Red. masses --      1.0580                 1.0586                 1.1023
 Frc consts  --      5.7379                 5.7775                 6.0795
 IR Inten    --      0.0000                17.4357                 0.0000

                     28                     29                     30
                     AU                     BU                     AG
 Frequencies --   3081.2089              3471.5364              3472.0110
 Red. masses --      1.1042                 1.1599                 1.1602
 Frc consts  --      6.1763                 8.2362                 8.2404
 IR Inten    --      9.3331               146.5026                 0.0000

 - Thermochemistry -
 -------------------
 Temperature   298.150 Kelvin.  Pressure   1.00000 Atm.
 Atom     1 has atomic number  6 and mass  12.00000

 Molecular mass:    78.04695 amu.
 Principal axes and moments of inertia in atomic units:
                           1         2         3
     Eigenvalues --    71.110831238.143291287.20639
           X           -0.31604   0.94874   0.00000
           Y            0.94874   0.31604   0.00000
           Z           -0.00000   0.00000   1.00000
 This molecule is an asymmetric top.
 Rotational symmetry number  2.
 Rotational temperatures (Kelvin)      1.21801     0.06995     0.06729
 Rotational constants (GHZ):          25.37928     1.45762     1.40206
 Zero-point vibrational energy     247160.5 (Joules/Mol)
                                   59.07277 (Kcal/Mol)
 Warning -- explicit consideration of   7 degrees of freedom as
           vibrations may cause significant error
 Vibrational temperatures:    110.74   180.23   313.67   481.28   538.44
          (Kelvin)            709.78   720.47   968.22   969.25   987.92
                              988.41  1106.98  1364.16  1398.04  1460.87
                             1491.71  1732.35  1857.50  1886.42  1970.57
                             2122.49  2136.13  3192.50  3195.42  4365.21
                             4378.96  4402.02  4433.17  4994.77  4995.45

 Zero-point correction=                           0.094138 (Hartree/Particle)
 Thermal correction to Energy=                    0.100920
 Thermal correction to Enthalpy=                  0.101865
 Thermal correction to Gibbs Free Energy=         0.064562
 Sum of electronic and zero-point Energies=           -232.110127
 Sum of electronic and thermal Energies=              -232.103345
 Sum of electronic and thermal Enthalpies=            -232.102401
 Sum of electronic and thermal Free Energies=         -232.139704

                     E (Thermal)             CV                S
                      KCal/Mol        Cal/Mol-Kelvin    Cal/Mol-Kelvin
 Total                   63.329             23.819             78.511
 Electronic               0.000              0.000              0.000
 Translational            0.889              2.981             38.979
 Rotational               0.889              2.981             24.853
 Vibrational             61.551             17.857             14.679
 Vibration     1          0.599              1.965              3.967
 Vibration     2          0.610              1.928              3.017
 Vibration     3          0.646              1.814              1.976
 Vibration     4          0.716              1.607              1.238
 Vibration     5          0.745              1.525              1.062
 Vibration     6          0.849              1.265              0.675
 Vibration     7          0.856              1.248              0.656

 Optimization completed.
    -- Stationary point found.
 Normal termination of Gaussian 16 at Thu Jun 16 15:14:32 2022.
