 Gaussian 16, Revision B.01,
 Gaussian 16:  ES64L-G16RevB.01 20-Dec-2017

 --------------------
 # b3lyp/gen opt freq
 --------------------

 ----------------------------
 1,5-hexadiene, B3LYP/pcseg-2
 ----------------------------
 Symbolic Z-matrix:
 Charge =  0 Multiplicity = 1

 SCF Done:  E(RB3LYP) =  -234.711414808     A.U. after   12 cycles
 SCF Done:  E(RB3LYP) =  -234.711536702     A.U. after    8 cycles
 SCF Done:  E(RB3LYP) =  -234.711538675     A.U. after    7 cycles
 SCF Done:  E(RB3LYP) =  -234.711538913     A.U. after    6 cycles
 Optimization completed.
    -- Stationary point found.
 Normal termination of Gaussian 16 at Fri Jun 17 17:27:43 2022.

 ------------------------------------------------------------------
 #N Geom=AllCheck Guess=TCheck SCRF=Check GenChk RB3LYP/ChkBas Freq
 ------------------------------------------------------------------

 Structure from the checkpoint file:  "/wrk/irikura/Gau-4108.chk"
 ----------------------------
 1,5-hexadiene, B3LYP/pcseg-2
 ----------------------------
 Charge =  0 Multiplicity = 1

                         Standard orientation:
 ---------------------------------------------------------------------
 Center     Atomic      Atomic             Coordinates (Angstroms)
 Number     Number       Type             X           Y           Z
 ---------------------------------------------------------------------
      1          6           0        0.420769    0.646656   -0.285864
      2          6           0       -0.420769   -0.646656   -0.285864
      3          1           0        1.084915    0.627011   -1.156909
      4          1           0        1.061836    0.664560    0.597699
      5          1           0       -1.084915   -0.627011   -1.156909
      6          1           0       -1.061836   -0.664560    0.597699
      7          6           0       -0.420769    1.885767   -0.334176
      8          1           0       -1.071413    1.982028   -1.199778
      9          6           0       -0.433554    2.841560    0.586472
     10          1           0        0.195526    2.789073    1.467214
     11          1           0       -1.069083    3.711857    0.493178
     12          6           0        0.420769   -1.885767   -0.334176
     13          1           0        1.071413   -1.982028   -1.199778
     14          6           0        0.433554   -2.841560    0.586472
     15          1           0       -0.195526   -2.789073    1.467214
     16          1           0        1.069083   -3.711857    0.493178
 ---------------------------------------------------------------------

 SCF Done:  E(RB3LYP) =  -234.711538913     A.U. after    1 cycles

 The electronic state is 1-A.
 Alpha  occ. eigenvalues --  -10.17673 -10.17666 -10.17645 -10.17630 -10.16416
 Alpha  occ. eigenvalues --  -10.16416  -0.81917  -0.77908  -0.71939  -0.63887
 Alpha  occ. eigenvalues --   -0.56194  -0.55689  -0.48654  -0.46457  -0.43931
 Alpha  occ. eigenvalues --   -0.43908  -0.39933  -0.37564  -0.36783  -0.34770
 Alpha  occ. eigenvalues --   -0.33769  -0.27347  -0.25971
 Alpha virt. eigenvalues --   -0.00183   0.00203   0.02105   0.03559   0.03654
 Alpha virt. eigenvalues --    0.04220   0.05754   0.07303   0.08277   0.09926
 Alpha virt. eigenvalues --    0.10400   0.11089   0.14332   0.14563   0.15764

 Mulliken charges:
               1
     1  C    0.029104
     2  C    0.029104
     3  H    0.030471
     4  H    0.020442
     5  H    0.030471
     6  H    0.020442
     7  C   -0.072853
     8  H    0.024758
     9  C   -0.115722
    10  H    0.037711
    11  H    0.046090
    12  C   -0.072853
    13  H    0.024758
    14  C   -0.115722
    15  H    0.037711
    16  H    0.046090
 Sum of Mulliken charges =  -0.00000

 Dipole moment (field-independent basis, Debye):
    X=              0.0000    Y=             -0.0000    Z=             -0.2705  Tot=              0.2705
 Quadrupole moment (field-independent basis, Debye-Ang):
   XX=            -40.0540   YY=            -40.5721   ZZ=            -37.7807
   XY=             -1.4370   XZ=              0.0000   YZ=             -0.0000

  Exact polarizability:  59.410  -7.978  97.879  -0.000   0.000  69.369
 Approx polarizability:  84.731  -6.295 119.382   0.000  -0.000 109.284

                      1                      2                      3
                      A                      A                      B
 Frequencies --     74.6273                97.6691               114.6391
 Red. masses --      2.9760                 1.9373                 2.5112
 Frc consts  --      0.0098                 0.0109                 0.0194
 IR Inten    --      0.0453                 0.0475                 0.1431

                      4                      5                      6
                      B                      A                      A
 Frequencies --    217.9914               349.9220               416.3229
 Red. masses --      1.9167                 2.6563                 2.0378
 Frc consts  --      0.0537                 0.1916                 0.2081
 IR Inten    --      0.2216                 0.1061                 0.0221

                      7                      8                      9
                      B                      A                      B
 Frequencies --    440.7198               634.2394               666.8944
 Red. masses --      1.8161                 1.4708                 1.4846
 Frc consts  --      0.2078                 0.3486                 0.3890
 IR Inten    --      1.9894                 8.0597                22.2972

                     10                     11                     12
                      A                      B                      A
 Frequencies --    788.1290               932.7511               948.4897
 Red. masses --      1.2328                 2.3215                 1.4970
 Frc consts  --      0.4512                 1.1900                 0.7935
 IR Inten    --      0.3292                 0.8192                11.9747

                     13                     14                     15
                      B                      A                      B
 Frequencies --    953.3715               959.0636               966.0976
 Red. masses --      1.3161                 1.5080                 1.4038
 Frc consts  --      0.7048                 0.8173                 0.7720
 IR Inten    --     72.8419                11.4083                 5.3317

                     16                     17                     18
                      A                      A                      B
 Frequencies --   1022.2128              1033.5245              1037.1419
 Red. masses --      3.1435                 1.1035                 1.1361
 Frc consts  --      1.9353                 0.6945                 0.7200
 IR Inten    --      3.5224                 6.0870                22.1243

                     19                     20                     21
                      A                      B                      A
 Frequencies --   1093.2561              1180.6170              1244.7754
 Red. masses --      1.5467                 2.0776                 1.4574
 Frc consts  --      1.0892                 1.7062                 1.3305
 IR Inten    --      0.0296                 1.7671                 0.0102

                     22                     23                     24
                      B                      B                      A
 Frequencies --   1279.5842              1311.1701              1329.3314
 Red. masses --      1.2759                 1.1061                 1.2427
 Frc consts  --      1.2309                 1.1204                 1.2938
 IR Inten    --      2.8284                 0.6642                 0.7741

                     25                     26                     27
                      B                      A                      A
 Frequencies --   1333.9995              1362.1420              1454.9580
 Red. masses --      1.2629                 1.4005                 1.1646
 Frc consts  --      1.3241                 1.5310                 1.4525
 IR Inten    --      0.5005                 0.3607                 2.0892

                     28                     29                     30
                      B                      A                      B
 Frequencies --   1459.3053              1480.9234              1495.1969
 Red. masses --      1.1761                 1.1207                 1.1084
 Frc consts  --      1.4757                 1.4481                 1.4599
 IR Inten    --      0.1544                 3.7390                 9.2515

                     31                     32                     33
                      A                      B                      A
 Frequencies --   1702.8319              1705.7748              3001.7072
 Red. masses --      4.5079                 4.5706                 1.0623
 Frc consts  --      7.7014                 7.8356                 5.6393
 IR Inten    --      6.8808                27.2989                 8.3984

                     34                     35                     36
                      B                      B                      A
 Frequencies --   3004.6911              3052.1950              3069.2523
 Red. masses --      1.0702                 1.0894                 1.0990
 Frc consts  --      5.6926                 5.9796                 6.0999
 IR Inten    --     32.7121                 9.1969                20.6152

                     37                     38                     39
                      B                      A                      B
 Frequencies --   3118.0631              3118.4190              3132.4604
 Red. masses --      1.0831                 1.0833                 1.0653
 Frc consts  --      6.2043                 6.2069                 6.1590
 IR Inten    --     12.6736                35.3521                 7.3341

                     40                     41                     42
                      A                      B                      A
 Frequencies --   3132.6773              3214.2993              3214.3736
 Red. masses --      1.0656                 1.1151                 1.1151
 Frc consts  --      6.1614                 6.7881                 6.7883
 IR Inten    --      2.8394                24.8690                 7.3354

 - Thermochemistry -
 -------------------
 Temperature   298.150 Kelvin.  Pressure   1.00000 Atm.
 Atom     1 has atomic number  6 and mass  12.00000

 Molecular mass:    82.07825 amu.
 Principal axes and moments of inertia in atomic units:
                           1         2         3
     Eigenvalues --   137.910741301.907041335.71443
           X           -0.15223   0.00000   0.98834
           Y            0.98834   0.00000   0.15223
           Z           -0.00000   1.00000  -0.00000
 This molecule is an asymmetric top.
 Rotational symmetry number  2.
 Rotational temperatures (Kelvin)      0.62804     0.06653     0.06484
 Rotational constants (GHZ):          13.08630     1.38623     1.35114
 Zero-point vibrational energy     371714.5 (Joules/Mol)
                                   88.84190 (Kcal/Mol)
 Warning -- explicit consideration of   7 degrees of freedom as
           vibrations may cause significant error
 Vibrational temperatures:    107.37   140.52   164.94   313.64   503.46
          (Kelvin)            599.00   634.10   912.53   959.51  1133.94
                             1342.02  1364.67  1371.69  1379.88  1390.00
                             1470.74  1487.01  1492.22  1572.95  1698.64
                             1790.95  1841.04  1886.48  1912.61  1919.33
                             1959.82  2093.36  2099.61  2130.72  2151.25
                             2450.00  2454.23  4318.79  4323.08  4391.43
                             4415.97  4486.20  4486.71  4506.91  4507.22
                             4624.66  4624.77

 Zero-point correction=                           0.141579 (Hartree/Particle)
 Thermal correction to Energy=                    0.148907
 Thermal correction to Enthalpy=                  0.149852
 Thermal correction to Gibbs Free Energy=         0.110691
 Sum of electronic and zero-point Energies=           -234.569960
 Sum of electronic and thermal Energies=              -234.562632
 Sum of electronic and thermal Enthalpies=            -234.561687
 Sum of electronic and thermal Free Energies=         -234.600848

                     E (Thermal)             CV                S
                      KCal/Mol        Cal/Mol-Kelvin    Cal/Mol-Kelvin
 Total                   93.441             25.517             82.420
 Electronic               0.000              0.000              0.000
 Translational            0.889              2.981             39.129
 Rotational               0.889              2.981             25.597
 Vibrational             91.663             19.555             17.694
 Vibration     1          0.599              1.966              4.027
 Vibration     2          0.603              1.951              3.500
 Vibration     3          0.608              1.937              3.189
 Vibration     4          0.646              1.814              1.976
 Vibration     5          0.727              1.575              1.167
 Vibration     6          0.780              1.435              0.905
 Vibration     7          0.801              1.381              0.824

                           ! Non-Optimized Parameters !
 Normal termination of Gaussian 16 at Fri Jun 17 17:32:01 2022.
