 Gaussian 16, Revision B.01,
 Gaussian 16:  ES64L-G16RevB.01 20-Dec-2017

 --------------------
 # opt freq b3lyp/gen
 --------------------

 ----------------------------
 1,4-hexadiyne, B3LYP/pcseg-2
 ----------------------------
 Symbolic Z-matrix:
 Charge =  0 Multiplicity = 1

 SCF Done:  E(RB3LYP) =  -232.209020414     A.U. after   14 cycles
 SCF Done:  E(RB3LYP) =  -232.209107623     A.U. after   10 cycles
 SCF Done:  E(RB3LYP) =  -232.208887605     A.U. after   11 cycles
 SCF Done:  E(RB3LYP) =  -232.209076293     A.U. after    9 cycles
 SCF Done:  E(RB3LYP) =  -232.209111833     A.U. after    8 cycles
 SCF Done:  E(RB3LYP) =  -232.209119112     A.U. after    9 cycles
 SCF Done:  E(RB3LYP) =  -232.209118977     A.U. after    7 cycles
 SCF Done:  E(RB3LYP) =  -232.209119145     A.U. after    6 cycles
 Optimization completed.
    -- Stationary point found.
 Normal termination of Gaussian 16 at Thu Jun 16 17:14:54 2022.

 ------------------------------------------------------------------
 #N Geom=AllCheck Guess=TCheck SCRF=Check GenChk RB3LYP/ChkBas Freq
 ------------------------------------------------------------------

 Structure from the checkpoint file:  "/wrk/irikura/Gau-12673.chk"
 ----------------------------
 1,4-hexadiyne, B3LYP/pcseg-2
 ----------------------------
 Charge =  0 Multiplicity = 1

                         Standard orientation:
 ---------------------------------------------------------------------
 Center     Atomic      Atomic             Coordinates (Angstroms)
 Number     Number       Type             X           Y           Z
 ---------------------------------------------------------------------
      1          6           0       -1.366516   -2.606194    0.000000
      2          6           0       -1.346804   -1.408428    0.000000
      3          6           0       -1.341274    0.055906    0.000000
      4          6           0        0.000000    0.643407    0.000000
      5          6           0        1.095008    1.133175    0.000000
      6          6           0        2.427650    1.718442    0.000000
      7          1           0       -1.377693   -3.667353    0.000000
      8          1           0       -1.896438    0.412423    0.873271
      9          1           0       -1.896438    0.412423   -0.873271
     10          1           0        2.584143    2.341541   -0.881968
     11          1           0        3.193895    0.941569    0.000000
     12          1           0        2.584143    2.341541    0.881968
 ---------------------------------------------------------------------

 SCF Done:  E(RB3LYP) =  -232.209119145     A.U. after    1 cycles

 The electronic state is 1-A'.
 Alpha  occ. eigenvalues --  -10.22494 -10.19256 -10.17986 -10.16945 -10.16626
 Alpha  occ. eigenvalues --  -10.16614  -0.81852  -0.77563  -0.73123  -0.68478
 Alpha  occ. eigenvalues --   -0.54432  -0.50294  -0.47589  -0.46231  -0.45574
 Alpha  occ. eigenvalues --   -0.43376  -0.43329  -0.28756  -0.28601  -0.26630
 Alpha  occ. eigenvalues --   -0.26189
 Alpha virt. eigenvalues --    0.00956   0.02129   0.02597   0.03303   0.04482
 Alpha virt. eigenvalues --    0.04815   0.05064   0.07194   0.08772   0.09825
 Alpha virt. eigenvalues --    0.10190   0.11407   0.14008   0.16873   0.17555

 Mulliken charges:
               1
     1  C   -0.334422
     2  C    0.211089
     3  C   -0.000592
     4  C   -0.053914
     5  C   -0.055620
     6  C   -0.083934
     7  H    0.035147
     8  H    0.064590
     9  H    0.064590
    10  H    0.049765
    11  H    0.053536
    12  H    0.049765
 Sum of Mulliken charges =  -0.00000

 Dipole moment (field-independent basis, Debye):
    X=              0.3719    Y=              0.7612    Z=              0.0000  Tot=              0.8472
 Quadrupole moment (field-independent basis, Debye-Ang):
   XX=            -31.3796   YY=            -31.8554   ZZ=            -37.2243
   XY=              1.8182   XZ=             -0.0000   YZ=              0.0000

  Exact polarizability:  76.069  18.994  80.065   0.000   0.000  44.096
 Approx polarizability: 107.192  20.196 115.399  -0.000  -0.000  62.201

                      1                      2                      3
                     A"                     A'                     A"
 Frequencies --     21.7761                91.5677               192.4653
 Red. masses --      1.0557                 3.8428                 2.7094
 Frc consts  --      0.0003                 0.0190                 0.0591
 IR Inten    --      0.0107                 1.9605                12.0666

                      4                      5                      6
                     A'                     A"                     A'
 Frequencies --    245.3911               326.4558               385.1984
 Red. masses --      3.9766                 2.7768                 4.9583
 Frc consts  --      0.1411                 0.1744                 0.4335
 IR Inten    --      5.6767                 8.5534                 3.9500

                      7                      8                      9
                     A"                     A'                     A"
 Frequencies --    393.5923               531.0991               675.1451
 Red. masses --      4.3499                 6.4913                 1.2578
 Frc consts  --      0.3970                 1.0788                 0.3378
 IR Inten    --      0.6319                 4.5937                51.2821

                     10                     11                     12
                     A'                     A'                     A"
 Frequencies --    688.1185               772.8389               937.1152
 Red. masses --      1.2870                 4.3795                 1.8507
 Frc consts  --      0.3590                 1.5412                 0.9576
 IR Inten    --     46.6492                 7.1879                 0.4212

                     13                     14                     15
                     A'                     A'                     A"
 Frequencies --    943.9760              1056.3622              1058.3952
 Red. masses --      4.2117                 1.4044                 1.3998
 Frc consts  --      2.2112                 0.9234                 0.9239
 IR Inten    --      4.2400                 0.5437                 0.5249

                     16                     17                     18
                     A'                     A"                     A'
 Frequencies --   1162.4410              1242.3054              1343.6195
 Red. masses --      3.4568                 1.0745                 1.5497
 Frc consts  --      2.7521                 0.9770                 1.6483
 IR Inten    --      0.2425                 0.0057                29.3647

                     19                     20                     21
                     A'                     A'                     A"
 Frequencies --   1418.4503              1457.7571              1478.6553
 Red. masses --      1.2471                 1.0747                 1.0390
 Frc consts  --      1.4783                 1.3456                 1.3384
 IR Inten    --      2.0094                 4.7942                 7.4255

                     22                     23                     24
                     A'                     A'                     A'
 Frequencies --   1479.1968              2228.1475              2362.8490
 Red. masses --      1.0391                 5.9421                11.8139
 Frc consts  --      1.3395                17.3812                38.8613
 IR Inten    --      7.5661                 6.2445                 3.3796

                     25                     26                     27
                     A'                     A'                     A"
 Frequencies --   3011.2448              3028.7590              3032.6901
 Red. masses --      1.0579                 1.0342                 1.1003
 Frc consts  --      5.6516                 5.5894                 5.9622
 IR Inten    --     10.1221                28.7612                 1.6189

                     28                     29                     30
                     A"                     A'                     A'
 Frequencies --   3085.0409              3085.7808              3473.1899
 Red. masses --      1.1010                 1.1008                 1.1613
 Frc consts  --      6.1738                 6.1760                 8.2539
 IR Inten    --      8.5829                 7.8927                68.3035

 - Thermochemistry -
 -------------------
 Temperature   298.150 Kelvin.  Pressure   1.00000 Atm.
 Atom     1 has atomic number  6 and mass  12.00000

 Molecular mass:    78.04695 amu.
 Principal axes and moments of inertia in atomic units:
                           1         2         3
     Eigenvalues --   143.527201201.923921323.27447
           X            0.70321   0.71098   0.00000
           Y            0.71098  -0.70321   0.00000
           Z            0.00000  -0.00000   1.00000
 This molecule is an asymmetric top.
 Rotational symmetry number  1.
 Rotational temperatures (Kelvin)      0.60347     0.07206     0.06545
 Rotational constants (GHZ):          12.57421     1.50154     1.36384
 Zero-point vibrational energy     246488.3 (Joules/Mol)
                                   58.91212 (Kcal/Mol)
 Warning -- explicit consideration of   8 degrees of freedom as
           vibrations may cause significant error
 Vibrational temperatures:     31.33   131.75   276.91   353.06   469.70
          (Kelvin)            554.21   566.29   764.13   971.38   990.05
                             1111.94  1348.30  1358.17  1519.87  1522.79
                             1672.49  1787.40  1933.17  2040.83  2097.39
                             2127.46  2128.23  3205.81  3399.61  4332.51
                             4357.71  4363.36  4438.69  4439.75  4997.15

 Zero-point correction=                           0.093882 (Hartree/Particle)
 Thermal correction to Energy=                    0.101202
 Thermal correction to Enthalpy=                  0.102147
 Thermal correction to Gibbs Free Energy=         0.061633
 Sum of electronic and zero-point Energies=           -232.115237
 Sum of electronic and thermal Energies=              -232.107917
 Sum of electronic and thermal Enthalpies=            -232.106973
 Sum of electronic and thermal Free Energies=         -232.147486

                     E (Thermal)             CV                S
                      KCal/Mol        Cal/Mol-Kelvin    Cal/Mol-Kelvin
 Total                   63.505             24.163             85.268
 Electronic               0.000              0.000              0.000
 Translational            0.889              2.981             38.979
 Rotational               0.889              2.981             26.926
 Vibrational             61.728             18.202             19.363
 Vibration     1          0.593              1.985              6.465
 Vibration     2          0.602              1.955              3.626
 Vibration     3          0.634              1.850              2.204
 Vibration     4          0.660              1.770              1.763
 Vibration     5          0.710              1.623              1.278
 Vibration     6          0.754              1.502              1.019
 Vibration     7          0.761              1.484              0.987
 Vibration     8          0.886              1.181              0.585

 Optimization completed.
    -- Stationary point found.
 Normal termination of Gaussian 16 at Thu Jun 16 17:17:03 2022.
