 Gaussian 16, Revision B.01,

 ---------------------------------------
 # b3lyp/gen opt freq CPHF(Grid=OneStep)
 ---------------------------------------

 ----------------------------
 1,4-hexadiyne, B3LYP/pcseg-2
 ----------------------------
 Symbolic Z-matrix:
 Charge =  0 Multiplicity = 1

 SCF Done:  E(RB3LYP) =  -232.209119145     A.U. after   14 cycles
 SCF Done:  E(RB3LYP) =  -232.209119127     A.U. after    6 cycles
 Optimization completed.
    -- Stationary point found.
 Normal termination of Gaussian 16 at Wed Sep 27 22:15:39 2023.

 ------------------------------------------------------------------
 #N Geom=AllCheck Guess=TCheck SCRF=Check GenChk RB3LYP/ChkBas Freq
 ------------------------------------------------------------------

 Structure from the checkpoint file:  "hexadiyne14.chk"
 ----------------------------
 1,4-hexadiyne, B3LYP/pcseg-2
 ----------------------------
 Charge =  0 Multiplicity = 1

 SCF Done:  E(RB3LYP) =  -232.209119127     A.U. after    1 cycles

  Exact polarizability:  76.081  18.986  80.050   0.000   0.000  44.097
 Approx polarizability: 107.210  20.184 115.384   0.000   0.000  62.201

                      1                      2                      3
                     A"                     A'                     A"
 Frequencies --     20.6666                91.5843               192.4616
 Red. masses --      1.0557                 3.8426                 2.7089
 Frc consts  --      0.0003                 0.0190                 0.0591
 IR Inten    --      0.0107                 1.9591                12.0699

                      4                      5                      6
                     A'                     A"                     A'
 Frequencies --    245.4000               326.4476               385.2164
 Red. masses --      3.9765                 2.7767                 4.9583
 Frc consts  --      0.1411                 0.1743                 0.4335
 IR Inten    --      5.6784                 8.5511                 3.9441

                      7                      8                      9
                     A"                     A'                     A"
 Frequencies --    393.6006               531.1313               675.1351
 Red. masses --      4.3500                 6.4926                 1.2578
 Frc consts  --      0.3971                 1.0791                 0.3378
 IR Inten    --      0.6324                 4.5985                51.2771

                     10                     11                     12
                     A'                     A'                     A"
 Frequencies --    688.1072               772.8103               937.1106
 Red. masses --      1.2870                 4.3791                 1.8509
 Frc consts  --      0.3590                 1.5409                 0.9576
 IR Inten    --     46.6733                 7.1918                 0.4210

                     13                     14                     15
                     A'                     A'                     A"
 Frequencies --    943.9544              1056.3348              1058.3826
 Red. masses --      4.2115                 1.4044                 1.3998
 Frc consts  --      2.2110                 0.9233                 0.9238
 IR Inten    --      4.2429                 0.5438                 0.5249

                     16                     17                     18
                     A'                     A"                     A'
 Frequencies --   1162.4167              1242.3135              1343.6236
 Red. masses --      3.4573                 1.0745                 1.5496
 Frc consts  --      2.7524                 0.9770                 1.6482
 IR Inten    --      0.2430                 0.0057                29.3549

                     19                     20                     21
                     A'                     A'                     A"
 Frequencies --   1418.4386              1457.7592              1478.6442
 Red. masses --      1.2470                 1.0747                 1.0390
 Frc consts  --      1.4783                 1.3456                 1.3384
 IR Inten    --      2.0099                 4.7962                 7.4260

                     22                     23                     24
                     A'                     A'                     A'
 Frequencies --   1479.1951              2228.1216              2362.8000
 Red. masses --      1.0391                 5.9423                11.8139
 Frc consts  --      1.3395                17.3812                38.8596
 IR Inten    --      7.5664                 6.2457                 3.3798

                     25                     26                     27
                     A'                     A'                     A"
 Frequencies --   3011.2705              3028.8020              3032.7051
 Red. masses --      1.0579                 1.0342                 1.1003
 Frc consts  --      5.6517                 5.5896                 5.9623
 IR Inten    --     10.1257                28.7590                 1.6195

                     28                     29                     30
                     A"                     A'                     A'
 Frequencies --   3085.0705              3085.8344              3473.1947
 Red. masses --      1.1010                 1.1008                 1.1613
 Frc consts  --      6.1739                 6.1762                 8.2539
 IR Inten    --      8.5834                 7.8916                68.2930

 - Thermochemistry -
 -------------------
 Temperature   298.150 Kelvin.  Pressure   1.00000 Atm.
 Atom     1 has atomic number  6 and mass  12.00000

 Molecular mass:    78.04695 amu.
 Principal axes and moments of inertia in atomic units:
                           1         2         3
     Eigenvalues --   143.594841201.763361323.18207
           X            0.70345   0.71075   0.00000
           Y            0.71075  -0.70345   0.00000
           Z            0.00000  -0.00000   1.00000
 This molecule is an asymmetric top.
 Rotational symmetry number  1.
 Rotational temperatures (Kelvin)      0.60318     0.07207     0.06546
 Rotational constants (GHZ):          12.56829     1.50174     1.36394
 Zero-point vibrational energy     246481.8 (Joules/Mol)
                                   58.91056 (Kcal/Mol)
 Warning -- explicit consideration of   8 degrees of freedom as
           vibrations may cause significant error
 Vibrational temperatures:     29.73   131.77   276.91   353.08   469.69
          (Kelvin)            554.24   566.30   764.18   971.37   990.03
                             1111.90  1348.29  1358.14  1519.83  1522.78
                             1672.46  1787.41  1933.17  2040.82  2097.39
                             2127.44  2128.23  3205.77  3399.54  4332.55
                             4357.77  4363.39  4438.73  4439.83  4997.15

 Zero-point correction=                           0.093880 (Hartree/Particle)
 Thermal correction to Energy=                    0.101202
 Thermal correction to Enthalpy=                  0.102146
 Thermal correction to Gibbs Free Energy=         0.061583
 Sum of electronic and zero-point Energies=           -232.115239
 Sum of electronic and thermal Energies=              -232.107917
 Sum of electronic and thermal Enthalpies=            -232.106973
 Sum of electronic and thermal Free Energies=         -232.147536

                     E (Thermal)             CV                S
                      KCal/Mol        Cal/Mol-Kelvin    Cal/Mol-Kelvin
 Total                   63.505             24.163             85.372
 Electronic               0.000              0.000              0.000
 Translational            0.889              2.981             38.979
 Rotational               0.889              2.981             26.926
 Vibrational             61.728             18.202             19.467
 Vibration     1          0.593              1.986              6.569
 Vibration     2          0.602              1.955              3.626
 Vibration     3          0.634              1.850              2.204
 Vibration     4          0.660              1.770              1.763
 Vibration     5          0.710              1.623              1.278
 Vibration     6          0.754              1.502              1.019
 Vibration     7          0.761              1.484              0.986
 Vibration     8          0.886              1.181              0.585

                           ! Non-Optimized Parameters !
 Normal termination of Gaussian 16 at Wed Sep 27 22:24:25 2023.
 Gaussian 16:  ES64L-G16RevB.01 20-Dec-2017

 ---------------------------------
 # rohf/gen geom=check guess=check
 ---------------------------------

 -------------------------------
 1,4-hexadiyne, ROHF/cc-pVTZ-F12
 -------------------------------
 Structure from the checkpoint file:  "hexadiyne14.chk"
 Charge =  0 Multiplicity = 1

                         Standard orientation:
 ---------------------------------------------------------------------
 Center     Atomic      Atomic             Coordinates (Angstroms)
 Number     Number       Type             X           Y           Z
 ---------------------------------------------------------------------
      1          6           0       -1.366996   -2.605699    0.000000
      2          6           0       -1.347310   -1.407928    0.000000
      3          6           0       -1.341417    0.056407    0.000000
      4          6           0        0.000000    0.643586    0.000000
      5          6           0        1.095218    1.132899    0.000000
      6          6           0        2.428221    1.717380    0.000000
      7          1           0       -1.377498   -3.666864    0.000000
      8          1           0       -1.896500    0.413070    0.873259
      9          1           0       -1.896500    0.413070   -0.873259
     10          1           0        2.585095    2.340389   -0.881959
     11          1           0        3.194011    0.940068    0.000000
     12          1           0        2.585095    2.340389    0.881959
 ---------------------------------------------------------------------

 SCF Done:  E(ROHF) =  -230.669477865     A.U. after   12 cycles

 The electronic state is 1-A'.
 Alpha  occ. eigenvalues --  -11.28094 -11.24594 -11.23765 -11.22671 -11.22279
 Alpha  occ. eigenvalues --  -11.22204  -1.09840  -1.04620  -0.99155  -0.93058
 Alpha  occ. eigenvalues --   -0.73157  -0.67676  -0.64108  -0.62169  -0.61642
 Alpha  occ. eigenvalues --   -0.58755  -0.58679  -0.39970  -0.39771  -0.37452
 Alpha  occ. eigenvalues --   -0.36909
 Alpha virt. eigenvalues --    0.04294   0.05106   0.05422   0.06930   0.07357
 Alpha virt. eigenvalues --    0.07445   0.08074   0.08944   0.09788   0.09849
 Alpha virt. eigenvalues --    0.10504   0.12699   0.13039   0.13875   0.14424

 Mulliken charges and spin densities:
               1          2
     1  C   -0.290769   0.000000
     2  C    0.024907   0.000000
     3  C   -0.231488   0.000000
     4  C    0.064366   0.000000
     5  C   -0.035666   0.000000
     6  C   -0.332545   0.000000
     7  H    0.228002   0.000000
     8  H    0.127196   0.000000
     9  H    0.127196   0.000000
    10  H    0.104905   0.000000
    11  H    0.108991   0.000000
    12  H    0.104905   0.000000
 Sum of Mulliken charges =  -0.00000   0.00000

 Dipole moment (field-independent basis, Debye):
    X=              0.3674    Y=              0.6981    Z=             -0.0000  Tot=              0.7889
 Quadrupole moment (field-independent basis, Debye-Ang):
   XX=            -31.3763   YY=            -31.4626   ZZ=            -37.6031
   XY=              2.0036   XZ=             -0.0000   YZ=              0.0000

 Normal termination of Gaussian 16 at Wed Sep 27 22:28:09 2023.
