 Gaussian 16, Revision B.01,

 ---------------------------------------
 # b3lyp/gen opt freq CPHF(Grid=OneStep)
 ---------------------------------------

 ----------------------------
 1,3-hexadiyne, B3LYP/pcseg-2
 ----------------------------
 Symbolic Z-matrix:
 Charge =  0 Multiplicity = 1

 SCF Done:  E(RB3LYP) =  -232.220854512     A.U. after   15 cycles
 Optimization completed.
    -- Stationary point found.
 Normal termination of Gaussian 16 at Fri Sep 29 10:35:01 2023.

 ------------------------------------------------------------------
 #N Geom=AllCheck Guess=TCheck SCRF=Check GenChk RB3LYP/ChkBas Freq
 ------------------------------------------------------------------

 Structure from the checkpoint file:  "hexadiyne13.chk"
 ----------------------------
 1,3-hexadiyne, B3LYP/pcseg-2
 ----------------------------
 Charge =  0 Multiplicity = 1

 SCF Done:  E(RB3LYP) =  -232.220854512     A.U. after    1 cycles

  Exact polarizability:  80.904 -42.503 101.415   0.000  -0.000  44.035
 Approx polarizability: 117.637 -78.309 174.511  -0.000   0.000  61.697

                      1                      2                      3
                     A'                     A"                     A"
 Frequencies --    100.4436               132.2882               232.5726
 Red. masses --      3.7379                 2.3995                 1.3182
 Frc consts  --      0.0222                 0.0247                 0.0420
 IR Inten    --      2.5388                 5.1453                 1.0092

                      4                      5                      6
                     A'                     A"                     A'
 Frequencies --    241.8520               354.4250               466.5773
 Red. masses --      4.2914                 3.0886                 5.1582
 Frc consts  --      0.1479                 0.2286                 0.6616
 IR Inten    --      2.0134                 0.2117                 0.3113

                      7                      8                      9
                     A"                     A'                     A"
 Frequencies --    530.1446               551.4553               646.1618
 Red. masses --      8.5437                 8.1199                 1.2582
 Frc consts  --      1.4148                 1.4549                 0.3095
 IR Inten    --      0.6480                 1.1697                52.5056

                     10                     11                     12
                     A'                     A'                     A"
 Frequencies --    649.3736               673.9609               787.4250
 Red. masses --      1.2617                 3.6664                 1.1856
 Frc consts  --      0.3135                 0.9812                 0.4331
 IR Inten    --     51.3458                 0.9121                 1.9223

                     13                     14                     15
                     A'                     A'                     A"
 Frequencies --    953.9333              1077.1134              1104.3868
 Red. masses --      2.5144                 1.8728                 1.4705
 Frc consts  --      1.3481                 1.2802                 1.0567
 IR Inten    --      0.0342                 4.7713                 0.2008

                     16                     17                     18
                     A'                     A"                     A'
 Frequencies --   1174.3360              1286.0767              1350.1720
 Red. masses --      3.5354                 1.1447                 1.5288
 Frc consts  --      2.8726                 1.1156                 1.6420
 IR Inten    --      2.2893                 0.0130                19.2048

                     19                     20                     21
                     A'                     A'                     A"
 Frequencies --   1413.2674              1472.9295              1495.5599
 Red. masses --      1.2036                 1.0761                 1.0387
 Frc consts  --      1.4164                 1.3756                 1.3689
 IR Inten    --      2.0943                 4.8417                 7.3635

                     22                     23                     24
                     A'                     A'                     A'
 Frequencies --   1504.9371              2161.8580              2335.5836
 Red. masses --      1.0557                 6.6722                10.7972
 Frc consts  --      1.4088                18.3726                34.7019
 IR Inten    --      3.4058                 8.0219                37.6137

                     25                     26                     27
                     A'                     A"                     A'
 Frequencies --   3018.2991              3042.9108              3043.7143
 Red. masses --      1.0585                 1.1017                 1.0340
 Frc consts  --      5.6815                 6.0102                 5.6440
 IR Inten    --     17.7778                 4.6864                32.2953

                     28                     29                     30
                     A'                     A"                     A'
 Frequencies --   3111.5300              3117.4772              3473.7491
 Red. masses --      1.1025                 1.1036                 1.1528
 Frc consts  --      6.2889                 6.3191                 8.1963
 IR Inten    --     26.8328                20.7037               113.4677

 - Thermochemistry -
 -------------------
 Temperature   298.150 Kelvin.  Pressure   1.00000 Atm.
 Atom     1 has atomic number  6 and mass  12.00000

 Molecular mass:    78.04695 amu.
 Principal axes and moments of inertia in atomic units:
                           1         2         3
     Eigenvalues --    81.837081350.083601409.73303
           X           -0.69441   0.71958   0.00000
           Y            0.71958   0.69441   0.00000
           Z            0.00000   0.00000   1.00000
 This molecule is an asymmetric top.
 Rotational symmetry number  1.
 Rotational temperatures (Kelvin)      1.05837     0.06415     0.06144
 Rotational constants (GHZ):          22.05285     1.33676     1.28020
 Zero-point vibrational energy     248252.1 (Joules/Mol)
                                   59.33368 (Kcal/Mol)
 Warning -- explicit consideration of   8 degrees of freedom as
           vibrations may cause significant error
 Vibrational temperatures:    144.52   190.33   334.62   347.97   509.94
          (Kelvin)            671.30   762.76   793.42   929.68   934.30
                              969.68  1132.93  1372.50  1549.73  1588.97
                             1689.61  1850.38  1942.60  2033.38  2119.22
                             2151.78  2165.27  3110.43  3360.38  4342.66
                             4378.07  4379.23  4476.80  4485.35  4997.95

 Zero-point correction=                           0.094554 (Hartree/Particle)
 Thermal correction to Energy=                    0.101437
 Thermal correction to Enthalpy=                  0.102382
 Thermal correction to Gibbs Free Energy=         0.064251
 Sum of electronic and zero-point Energies=           -232.126300
 Sum of electronic and thermal Energies=              -232.119417
 Sum of electronic and thermal Enthalpies=            -232.118473
 Sum of electronic and thermal Free Energies=         -232.156603

                     E (Thermal)             CV                S
                      KCal/Mol        Cal/Mol-Kelvin    Cal/Mol-Kelvin
 Total                   63.653             23.878             80.252
 Electronic               0.000              0.000              0.000
 Translational            0.889              2.981             38.979
 Rotational               0.889              2.981             26.546
 Vibrational             61.875             17.917             14.727
 Vibration     1          0.604              1.949              3.446
 Vibration     2          0.612              1.921              2.913
 Vibration     3          0.653              1.791              1.859
 Vibration     4          0.658              1.776              1.789
 Vibration     5          0.730              1.566              1.146
 Vibration     6          0.824              1.324              0.747
 Vibration     7          0.885              1.183              0.587
 Vibration     8          0.907              1.137              0.541

 Optimization completed.
    -- Stationary point found.
 Normal termination of Gaussian 16 at Fri Sep 29 10:43:51 2023.
 Gaussian 16:  ES64L-G16RevB.01 20-Dec-2017

 ---------------------------------
 # rohf/gen geom=check guess=check
 ---------------------------------

 -------------------------------
 1,3-hexadiyne, ROHF/cc-pVTZ-F12
 -------------------------------
 Structure from the checkpoint file:  "hexadiyne13.chk"
 Charge =  0 Multiplicity = 1

                         Standard orientation:
 ---------------------------------------------------------------------
 Center     Atomic      Atomic             Coordinates (Angstroms)
 Number     Number       Type             X           Y           Z
 ---------------------------------------------------------------------
      1          6           0        2.144905   -2.559260    0.000000
      2          6           0        1.458804   -1.568089    0.000000
      3          6           0        0.683440   -0.446880    0.000000
      4          6           0        0.000000    0.548821    0.000000
      5          6           0       -0.841702    1.734703    0.000000
      6          6           0       -2.345113    1.413513    0.000000
      7          1           0        2.748387   -3.431903    0.000000
      8          1           0       -0.594491    2.343853    0.874020
      9          1           0       -0.594491    2.343853   -0.874020
     10          1           0       -2.924931    2.336343    0.000000
     11          1           0       -2.618240    0.835505    0.881659
     12          1           0       -2.618240    0.835505   -0.881659
 ---------------------------------------------------------------------

 SCF Done:  E(ROHF) =  -230.672816640     A.U. after   13 cycles

 The electronic state is 1-A'.
 Alpha  occ. eigenvalues --  -11.26088 -11.25425 -11.25098 -11.24237 -11.24196
 Alpha  occ. eigenvalues --  -11.23089  -1.10052  -1.06012  -0.99608  -0.89137
 Alpha  occ. eigenvalues --   -0.81796  -0.70783  -0.65875  -0.63620  -0.56188
 Alpha  occ. eigenvalues --   -0.53316  -0.52474  -0.47359  -0.47309  -0.35041
 Alpha  occ. eigenvalues --   -0.34988
 Alpha virt. eigenvalues --    0.04315   0.04937   0.05063   0.06823   0.06956
 Alpha virt. eigenvalues --    0.07969   0.08031   0.09161   0.09376   0.09878
 Alpha virt. eigenvalues --    0.10454   0.11165   0.12601   0.12915   0.13447

 Mulliken charges and spin densities:
               1          2
     1  C   -0.565796   0.000000
     2  C    0.161635   0.000000
     3  C    0.236520   0.000000
     4  C   -0.084295   0.000000
     5  C   -0.234680   0.000000
     6  C   -0.251269   0.000000
     7  H    0.254622   0.000000
     8  H    0.099556   0.000000
     9  H    0.099556   0.000000
    10  H    0.101306   0.000000
    11  H    0.091422   0.000000
    12  H    0.091422   0.000000
 Sum of Mulliken charges =  -0.00000   0.00000

 Dipole moment (field-independent basis, Debye):
    X=             -0.8742    Y=              0.9914    Z=             -0.0000  Tot=              1.3218
 Quadrupole moment (field-independent basis, Debye-Ang):
   XX=            -33.9436   YY=            -28.9959   ZZ=            -37.7182
   XY=             -6.0171   XZ=              0.0000   YZ=              0.0000

 Normal termination of Gaussian 16 at Fri Sep 29 10:47:48 2023.
