 Gaussian 16, Revision B.01,
 Gaussian 16:  ES64L-G16RevB.01 20-Dec-2017

 -------------------------
 # b3lyp/gen opt=cart freq
 -------------------------

 ----------------------------
 2,4-hexadiyne, B3LYP/pcseg-2
 ----------------------------
 Symbolic Z-matrix:
 Charge =  0 Multiplicity = 1

 SCF Done:  E(RB3LYP) =  -232.233350702     A.U. after   12 cycles
 SCF Done:  E(RB3LYP) =  -232.233403817     A.U. after    8 cycles
 SCF Done:  E(RB3LYP) =  -232.233405168     A.U. after    6 cycles
 Optimization completed.
    -- Stationary point found.
 Normal termination of Gaussian 16 at Thu Jun 16 15:51:38 2022.

 ------------------------------------------------------------------
 #N Geom=AllCheck Guess=TCheck SCRF=Check GenChk RB3LYP/ChkBas Freq
 ------------------------------------------------------------------

 Structure from the checkpoint file:  "/wrk/irikura/Gau-27581.chk"
 ----------------------------
 2,4-hexadiyne, B3LYP/pcseg-2
 ----------------------------
 Charge =  0 Multiplicity = 1

                         Standard orientation:
 ---------------------------------------------------------------------
 Center     Atomic      Atomic             Coordinates (Angstroms)
 Number     Number       Type             X           Y           Z
 ---------------------------------------------------------------------
      1          6           0        0.000000    0.000000    1.889380
      2          6           0        0.000000    0.000000    0.681838
      3          6           0       -0.000000   -0.000000   -0.681838
      4          6           0       -0.000000   -0.000000   -1.889380
      5          6           0        0.000000    0.000000    3.340411
      6          1           0        0.000000    1.018601    3.733441
      7          1           0       -0.882135   -0.509301    3.733441
      8          1           0        0.882135   -0.509301    3.733441
      9          6           0       -0.000000   -0.000000   -3.340411
     10          1           0        0.882135    0.509301   -3.733441
     11          1           0       -0.882135    0.509301   -3.733441
     12          1           0       -0.000000   -1.018601   -3.733441
 ---------------------------------------------------------------------

 SCF Done:  E(RB3LYP) =  -232.233405168     A.U. after    1 cycles

 The electronic state is 1-A1G.
 Alpha  occ. eigenvalues --  -10.19711 -10.19711 -10.18088 -10.18083 -10.17699
 Alpha  occ. eigenvalues --  -10.17636  -0.80384  -0.78360  -0.74061  -0.69316
 Alpha  occ. eigenvalues --   -0.59027  -0.47478  -0.46480  -0.44074  -0.44074
 Alpha  occ. eigenvalues --   -0.43825  -0.43825  -0.33347  -0.33347  -0.23942
 Alpha  occ. eigenvalues --   -0.23942
 Alpha virt. eigenvalues --   -0.01044  -0.01044   0.01290   0.01754   0.07125
 Alpha virt. eigenvalues --    0.07125   0.07977   0.07977   0.08205   0.10240
 Alpha virt. eigenvalues --    0.14229   0.15583   0.15583   0.17311   0.17311

 Mulliken charges:
               1
     1  C    0.030259
     2  C   -0.093629
     3  C   -0.093629
     4  C    0.030259
     5  C   -0.098970
     6  H    0.054114
     7  H    0.054114
     8  H    0.054114
     9  C   -0.098970
    10  H    0.054114
    11  H    0.054114
    12  H    0.054114
 Sum of Mulliken charges =  -0.00000

 Dipole moment (field-independent basis, Debye):
    X=              0.0000    Y=             -0.0000    Z=             -0.0000  Tot=              0.0000
 Quadrupole moment (field-independent basis, Debye-Ang):
   XX=            -36.9028   YY=            -36.9028   ZZ=            -20.1511
   XY=             -0.0000   XZ=             -0.0000   YZ=             -0.0000

  Exact polarizability:  43.818   0.000  43.819  -0.000  -0.001 148.888
 Approx polarizability:  60.522  -0.000  60.522   0.000   0.000 243.327

                      1                      2                      3
                     A1U                    EU                     EU
 Frequencies --      0.4149                99.3629                99.3638
 Red. masses --      1.0078                 3.5112                 3.5112
 Frc consts  --      0.0000                 0.0204                 0.0204
 IR Inten    --      0.0000                 7.7882                 7.7881

                      4                      5                      6
                     EG                     EG                     EU
 Frequencies --    245.3479               245.3481               377.7865
 Red. masses --      3.6416                 3.6416                 4.9228
 Frc consts  --      0.1292                 0.1292                 0.4140
 IR Inten    --      0.0000                 0.0000                 5.6615

                      7                      8                      9
                     EU                     EG                     EG
 Frequencies --    377.7865               530.2281               530.2281
 Red. masses --      4.9228                 9.5282                 9.5282
 Frc consts  --      0.4140                 1.5783                 1.5783
 IR Inten    --      5.6614                 0.0000                 0.0000

                     10                     11                     12
                     A1G                    A2U                    EU
 Frequencies --    560.0127               953.8207              1047.4356
 Red. masses --      4.3085                 4.5965                 1.4010
 Frc consts  --      0.7961                 2.4638                 0.9056
 IR Inten    --      0.0000                 3.7095                 2.1505

                     13                     14                     15
                     EU                     EG                     EG
 Frequencies --   1047.4357              1052.8110              1052.8110
 Red. masses --      1.4010                 1.3949                 1.3949
 Frc consts  --      0.9056                 0.9109                 0.9109
 IR Inten    --      2.1505                 0.0000                 0.0000

                     16                     17                     18
                     A1G                    A2U                    A1G
 Frequencies --   1289.7381              1413.4670              1420.0185
 Red. masses --      5.1506                 1.2322                 1.3211
 Frc consts  --      5.0479                 1.4505                 1.5696
 IR Inten    --      0.0000                14.5596                 0.0000

                     19                     20                     21
                     EU                     EU                     EG
 Frequencies --   1473.4921              1473.4923              1473.5348
 Red. masses --      1.0387                 1.0387                 1.0388
 Frc consts  --      1.3288                 1.3288                 1.3290
 IR Inten    --     15.9637                15.9641                 0.0000

                     22                     23                     24
                     EG                     A2U                    A1G
 Frequencies --   1473.5350              2264.1410              2361.8468
 Red. masses --      1.0388                11.8541                11.8653
 Frc consts  --      1.3290                35.8034                38.9970
 IR Inten    --      0.0000                 4.2261                 0.0000

                     25                     26                     27
                     A2U                    A1G                    EG
 Frequencies --   3021.7102              3022.0668              3077.7399
 Red. masses --      1.0338                 1.0341                 1.1007
 Frc consts  --      5.5617                 5.5645                 6.1429
 IR Inten    --     65.7184                 0.0000                 0.0000

                     28                     29                     30
                     EG                     EU                     EU
 Frequencies --   3077.7402              3077.9305              3077.9307
 Red. masses --      1.1007                 1.1007                 1.1007
 Frc consts  --      6.1429                 6.1438                 6.1438
 IR Inten    --      0.0000                14.1723                14.1723

 - Thermochemistry -
 -------------------
 Temperature   298.150 Kelvin.  Pressure   1.00000 Atm.
 Atom     1 has atomic number  6 and mass  12.00000

 Molecular mass:    78.04695 amu.
 Principal axes and moments of inertia in atomic units:
                           1         2         3
     Eigenvalues --    22.404871614.317581614.31758
           X           -0.00000  -0.16195   0.98680
           Y            0.00000   0.98680   0.16195
           Z            1.00000  -0.00000   0.00000
 This molecule is a prolate symmetric top.
 Rotational symmetry number  6.
 Rotational temperatures (Kelvin)      3.86585     0.05365     0.05365
 Rotational constants (GHZ):          80.55128     1.11796     1.11796
 Zero-point vibrational energy     246541.8 (Joules/Mol)
                                   58.92491 (Kcal/Mol)
 Warning -- explicit consideration of  10 degrees of freedom as
           vibrations may cause significant error
 Vibrational temperatures:      0.60   142.96   142.96   353.00   353.00
          (Kelvin)            543.55   543.55   762.88   762.88   805.73
                             1372.34  1507.03  1507.03  1514.76  1514.76
                             1855.65  2033.66  2043.09  2120.03  2120.03
                             2120.09  2120.09  3257.59  3398.17  4347.57
                             4348.08  4428.18  4428.18  4428.46  4428.46

 Zero-point correction=                           0.093903 (Hartree/Particle)
 Thermal correction to Energy=                    0.101601
 Thermal correction to Enthalpy=                  0.102546
 Thermal correction to Gibbs Free Energy=         0.059730
 Sum of electronic and zero-point Energies=           -232.139502
 Sum of electronic and thermal Energies=              -232.131804
 Sum of electronic and thermal Enthalpies=            -232.130860
 Sum of electronic and thermal Free Energies=         -232.173675

                     E (Thermal)             CV                S
                      KCal/Mol        Cal/Mol-Kelvin    Cal/Mol-Kelvin
 Total                   63.756             24.330             90.112
 Electronic               0.000              0.000              0.000
 Translational            0.889              2.981             38.979
 Rotational               0.889              2.981             22.011
 Vibrational             61.978             18.369             29.123
 Vibration     1          0.592              1.987             14.335
 Vibration     2          0.604              1.950              3.467
 Vibration     3          0.604              1.950              3.467
 Vibration     4          0.660              1.770              1.764
 Vibration     5          0.660              1.770              1.764
 Vibration     6          0.748              1.517              1.048
 Vibration     7          0.748              1.517              1.048
 Vibration     8          0.885              1.183              0.587
 Vibration     9          0.885              1.183              0.587
 Vibration    10          0.916              1.118              0.524

 Optimization completed.
    -- Stationary point found.
 Normal termination of Gaussian 16 at Thu Jun 16 15:52:38 2022.
