 Gaussian 16, Revision B.01,

 ---------------------------------------
 # b3lyp/gen opt freq CPHF(Grid=OneStep)
 ---------------------------------------

 -----------------------
 n-hexane, B3LYP/pcseg-2
 -----------------------
 Symbolic Z-matrix:
 Charge =  0 Multiplicity = 1

 SCF Done:  E(RB3LYP) =  -237.182582388     A.U. after   11 cycles
 Optimization completed.
    -- Stationary point found.
 Normal termination of Gaussian 16 at Sat Sep 30 08:19:41 2023.

 ------------------------------------------------------------------
 #N Geom=AllCheck Guess=TCheck SCRF=Check GenChk RB3LYP/ChkBas Freq
 ------------------------------------------------------------------

 Structure from the checkpoint file:  "hexane.chk"
 -----------------------
 n-hexane, B3LYP/pcseg-2
 -----------------------
 Charge =  0 Multiplicity = 1

 SCF Done:  E(RB3LYP) =  -237.182582388     A.U. after    1 cycles

  Exact polarizability:  75.886   8.904  88.365  -0.000  -0.000  66.827
 Approx polarizability: 101.832  -0.403 101.951  -0.000   0.000 100.741

                      1                      2                      3
                     AU                     AU                     BU
 Frequencies --     73.3419                99.3307               130.4201
 Red. masses --      2.3187                 1.5913                 2.7797
 Frc consts  --      0.0073                 0.0093                 0.0279
 IR Inten    --      0.0174                 0.0017                 0.0016

                      4                      5                      6
                     BG                     BG                     AU
 Frequencies --    148.2898               237.0620               248.4312
 Red. masses --      2.0155                 1.0836                 1.1406
 Frc consts  --      0.0261                 0.0359                 0.0415
 IR Inten    --      0.0000                 0.0000                 0.0002

                      7                      8                      9
                     AG                     AG                     BU
 Frequencies --    296.3019               365.9672               465.9537
 Red. masses --      2.6229                 3.4046                 2.5581
 Frc consts  --      0.1357                 0.2687                 0.3272
 IR Inten    --      0.0000                 0.0000                 0.0545

                     10                     11                     12
                     AU                     BG                     AU
 Frequencies --    732.4463               747.8617               809.3076
 Red. masses --      1.0622                 1.0958                 1.1508
 Frc consts  --      0.3358                 0.3611                 0.4441
 IR Inten    --      4.3940                 0.0000                 0.9956

                     13                     14                     15
                     BU                     AG                     BG
 Frequencies --    887.9875               907.6422               909.7767
 Red. masses --      2.2985                 1.6304                 1.1719
 Frc consts  --      1.0678                 0.7913                 0.5715
 IR Inten    --      2.5901                 0.0000                 0.0000

                     16                     17                     18
                     AG                     AU                     BU
 Frequencies --   1009.1701              1016.0529              1049.8979
 Red. masses --      3.9332                 1.1174                 2.5643
 Frc consts  --      2.3601                 0.6797                 1.6654
 IR Inten    --      0.0000                 0.2995                 0.0778

                     19                     20                     21
                     AG                     BU                     AG
 Frequencies --   1066.1193              1076.9808              1159.5059
 Red. masses --      2.2741                 1.7603                 2.4816
 Frc consts  --      1.5229                 1.2030                 1.9658
 IR Inten    --      0.0000                 4.0766                 0.0000

                     22                     23                     24
                     BG                     AU                     BU
 Frequencies --   1208.3947              1254.6746              1278.7277
 Red. masses --      1.8598                 1.4003                 1.3059
 Frc consts  --      1.6000                 1.2988                 1.2581
 IR Inten    --      0.0000                 0.0226                 2.1401

                     25                     26                     27
                     BG                     BG                     AU
 Frequencies --   1309.7955              1332.1180              1336.7354
 Red. masses --      1.2091                 1.0408                 1.1073
 Frc consts  --      1.2221                 1.0882                 1.1657
 IR Inten    --      0.0000                 0.0000                 0.9625

                     28                     29                     30
                     AG                     BU                     AG
 Frequencies --   1345.9189              1390.4509              1397.5594
 Red. masses --      1.3595                 1.4806                 1.5786
 Frc consts  --      1.4510                 1.6865                 1.8166
 IR Inten    --      0.0000                 2.4096                 0.0000

                     31                     32                     33
                     BU                     AG                     AG
 Frequencies --   1412.9583              1415.9671              1485.1291
 Red. masses --      1.2329                 1.2518                 1.0732
 Frc consts  --      1.4502                 1.4788                 1.3946
 IR Inten    --      4.3780                 0.0000                 0.0000

                     34                     35                     36
                     BU                     AG                     AU
 Frequencies --   1485.9496              1492.3624              1498.8095
 Red. masses --      1.0666                 1.0536                 1.0401
 Frc consts  --      1.3875                 1.3825                 1.3767
 IR Inten    --      0.5235                 0.0000                14.7359

                     37                     38                     39
                     BG                     BU                     AG
 Frequencies --   1499.0332              1499.4962              1508.4875
 Red. masses --      1.0396                 1.0639                 1.0825
 Frc consts  --      1.3764                 1.4095                 1.4513
 IR Inten    --      0.0000                 2.3920                 0.0000

                     40                     41                     42
                     BU                     AG                     BU
 Frequencies --   1515.6172              2994.7687              2997.9649
 Red. masses --      1.0949                 1.0572                 1.0579
 Frc consts  --      1.4819                 5.5864                 5.6022
 IR Inten    --     11.7084                 0.0000                 6.1003

                     43                     44                     45
                     AG                     BG                     BU
 Frequencies --   3009.0318              3010.8339              3013.5498
 Red. masses --      1.0595                 1.0992                 1.0592
 Frc consts  --      5.6522                 5.8706                 5.6673
 IR Inten    --      0.0000                 0.0000               102.7733

                     46                     47                     48
                     AU                     BU                     AG
 Frequencies --   3021.6561              3023.1508              3023.3409
 Red. masses --      1.1018                 1.0357                 1.0354
 Frc consts  --      5.9271                 5.5772                 5.5760
 IR Inten    --      0.0436                91.6893                 0.0000

                     49                     50                     51
                     BG                     AU                     BG
 Frequencies --   3037.9201              3051.4463              3082.1324
 Red. masses --      1.1044                 1.1052                 1.1025
 Frc consts  --      6.0050                 6.0631                 6.1705
 IR Inten    --      0.0000                69.2396                 0.0000

                     52                     53                     54
                     AU                     AG                     BU
 Frequencies --   3082.8807              3087.5087              3087.5207
 Red. masses --      1.1023                 1.1009                 1.1009
 Frc consts  --      6.1728                 6.1830                 6.1834
 IR Inten    --    128.9493                 0.0000                83.4447

 - Thermochemistry -
 -------------------
 Temperature   298.150 Kelvin.  Pressure   1.00000 Atm.
 Atom     1 has atomic number  6 and mass  12.00000

 Molecular mass:    86.10955 amu.
 Principal axes and moments of inertia in atomic units:
                           1         2         3
     Eigenvalues --   122.687401595.423761651.78229
           X            0.49759   0.86741   0.00000
           Y            0.86741  -0.49759   0.00000
           Z            0.00000  -0.00000   1.00000
 This molecule is an asymmetric top.
 Rotational symmetry number  2.
 Rotational temperatures (Kelvin)      0.70597     0.05429     0.05244
 Rotational constants (GHZ):          14.71008     1.13120     1.09260
 Zero-point vibrational energy     494235.6 (Joules/Mol)
                                  118.12514 (Kcal/Mol)
 Warning -- explicit consideration of   9 degrees of freedom as
           vibrations may cause significant error
 Vibrational temperatures:    105.52   142.91   187.65   213.36   341.08
          (Kelvin)            357.44   426.31   526.55   670.40  1053.83
                             1076.01  1164.41  1277.62  1305.89  1308.97
                             1451.97  1461.87  1510.57  1533.91  1549.54
                             1668.27  1738.61  1805.20  1839.80  1884.50
                             1916.62  1923.26  1936.48  2000.55  2010.78
                             2032.93  2037.26  2136.77  2137.95  2147.18
                             2156.45  2156.77  2157.44  2170.38  2180.64
                             4308.80  4313.40  4329.33  4331.92  4335.83
                             4347.49  4349.64  4349.91  4370.89  4390.35
                             4434.50  4435.58  4442.24  4442.25

 Zero-point correction=                           0.188244 (Hartree/Particle)
 Thermal correction to Energy=                    0.196695
 Thermal correction to Enthalpy=                  0.197639
 Thermal correction to Gibbs Free Energy=         0.156243
 Sum of electronic and zero-point Energies=           -236.994338
 Sum of electronic and thermal Energies=              -236.985887
 Sum of electronic and thermal Enthalpies=            -236.984943
 Sum of electronic and thermal Free Energies=         -237.026340

                     E (Thermal)             CV                S
                      KCal/Mol        Cal/Mol-Kelvin    Cal/Mol-Kelvin
 Total                  123.428             29.425             87.127
 Electronic               0.000              0.000              0.000
 Translational            0.889              2.981             39.272
 Rotational               0.889              2.981             25.894
 Vibrational            121.651             23.463             21.961
 Vibration     1          0.599              1.967              4.062
 Vibration     2          0.604              1.950              3.467
 Vibration     3          0.612              1.923              2.940
 Vibration     4          0.618              1.905              2.694
 Vibration     5          0.656              1.784              1.825
 Vibration     6          0.662              1.765              1.742
 Vibration     7          0.690              1.681              1.438
 Vibration     8          0.739              1.542              1.097
 Vibration     9          0.823              1.326              0.749

 Optimization completed.
    -- Stationary point found.
 Normal termination of Gaussian 16 at Sat Sep 30 08:39:06 2023.
 Gaussian 16:  ES64L-G16RevB.01 20-Dec-2017

 ---------------------------------
 # rohf/gen geom=check guess=check
 ---------------------------------

 --------------------------
 n-hexane, ROHF/cc-pVTZ-F12
 --------------------------
 Structure from the checkpoint file:  "hexane.chk"
 Charge =  0 Multiplicity = 1

                         Standard orientation:
 ---------------------------------------------------------------------
 Center     Atomic      Atomic             Coordinates (Angstroms)
 Number     Number       Type             X           Y           Z
 ---------------------------------------------------------------------
      1          6           0        1.409942    2.897556    0.000000
      2          6           0       -1.409942   -2.897556    0.000000
      3          6           0        0.005553    0.764388    0.000000
      4          6           0       -0.005553   -0.764388    0.000000
      5          6           0       -1.409942   -1.369687    0.000000
      6          6           0        1.409942    1.369687    0.000000
      7          1           0       -2.424797   -3.297559    0.000000
      8          1           0        2.424797    3.297559    0.000000
      9          1           0        0.898575    3.291781    0.880556
     10          1           0        0.898575    3.291781   -0.880556
     11          1           0       -0.898575   -3.291781   -0.880556
     12          1           0       -0.898575   -3.291781    0.880556
     13          1           0        1.958302    1.005193   -0.873866
     14          1           0        1.958302    1.005193    0.873866
     15          1           0       -1.958302   -1.005193   -0.873866
     16          1           0       -1.958302   -1.005193    0.873866
     17          1           0       -0.543391    1.129871    0.874471
     18          1           0       -0.543391    1.129871   -0.874471
     19          1           0        0.543391   -1.129871   -0.874471
     20          1           0        0.543391   -1.129871    0.874471
 ---------------------------------------------------------------------

 SCF Done:  E(ROHF) =  -235.464541477     A.U. after    9 cycles

 The electronic state is 1-AG.
 Alpha  occ. eigenvalues --  -11.21328 -11.21327 -11.21124 -11.21063 -11.20744
 Alpha  occ. eigenvalues --  -11.20744  -1.08341  -1.03520  -0.96057  -0.87146
 Alpha  occ. eigenvalues --   -0.79783  -0.78391  -0.64973  -0.60881  -0.59357
 Alpha  occ. eigenvalues --   -0.57680  -0.55267  -0.52786  -0.52541  -0.49944
 Alpha  occ. eigenvalues --   -0.48011  -0.46658  -0.45835  -0.45751  -0.44004
 Alpha virt. eigenvalues --    0.04565   0.04914   0.05212   0.06416   0.06593
 Alpha virt. eigenvalues --    0.07205   0.08200   0.08787   0.09179   0.09645
 Alpha virt. eigenvalues --    0.10134   0.10558   0.12216   0.12583   0.12956

 Mulliken charges and spin densities:
               1          2
     1  C   -0.316856   0.000000
     2  C   -0.316856   0.000000
     3  C   -0.113764   0.000000
     4  C   -0.113764   0.000000
     5  C   -0.126268   0.000000
     6  C   -0.126268   0.000000
     7  H    0.086985   0.000000
     8  H    0.086985   0.000000
     9  H    0.086681   0.000000
    10  H    0.086681   0.000000
    11  H    0.086681   0.000000
    12  H    0.086681   0.000000
    13  H    0.076115   0.000000
    14  H    0.076115   0.000000
    15  H    0.076115   0.000000
    16  H    0.076115   0.000000
    17  H    0.072156   0.000000
    18  H    0.072156   0.000000
    19  H    0.072156   0.000000
    20  H    0.072156   0.000000
 Sum of Mulliken charges =  -0.00000   0.00000

 Dipole moment (field-independent basis, Debye):
    X=             -0.0000    Y=              0.0000    Z=              0.0000  Tot=              0.0000
 Quadrupole moment (field-independent basis, Debye-Ang):
   XX=            -42.3879   YY=            -43.7174   ZZ=            -41.2359
   XY=             -0.1405   XZ=             -0.0000   YZ=              0.0000

 Normal termination of Gaussian 16 at Sat Sep 30 08:42:33 2023.
