 Gaussian 16, Revision B.01,
 Gaussian 16:  ES64L-G16RevB.01 20-Dec-2017

 --------------------
 # b3lyp/gen opt freq
 --------------------

 -----------------
 HF, B3LYP/pcseg-2
 -----------------
 Symbolic Z-matrix:
 Charge =  0 Multiplicity = 1

 SCF Done:  E(RB3LYP) =  -100.487185097     A.U. after    9 cycles
 SCF Done:  E(RB3LYP) =  -100.492622286     A.U. after    9 cycles
 SCF Done:  E(RB3LYP) =  -100.492645144     A.U. after    6 cycles
 Optimization completed.
    -- Stationary point found.
 Normal termination of Gaussian 16 at Thu Feb  3 12:14:22 2022.

 ------------------------------------------------------------------
 #N Geom=AllCheck Guess=TCheck SCRF=Check GenChk RB3LYP/ChkBas Freq
 ------------------------------------------------------------------

 Structure from the checkpoint file:  "/wrk/irikura/Gau-22550.chk"
 -----------------
 HF, B3LYP/pcseg-2
 -----------------
 Charge =  0 Multiplicity = 1

                         Standard orientation:
 ---------------------------------------------------------------------
 Center     Atomic      Atomic             Coordinates (Angstroms)
 Number     Number       Type             X           Y           Z
 ---------------------------------------------------------------------
      1          1           0        0.000000    0.000000   -0.829702
      2          9           0        0.000000    0.000000    0.092189
 ---------------------------------------------------------------------

 SCF Done:  E(RB3LYP) =  -100.492645144     A.U. after    1 cycles

 The electronic state is 1-SG.
 Alpha  occ. eigenvalues --  -24.67520  -1.20540  -0.55634  -0.42107  -0.42107
 Alpha virt. eigenvalues --   -0.00447   0.27243   0.42615   0.42662   0.42662
 Alpha virt. eigenvalues --    0.65909   0.81176   0.81176   1.15501   1.46706
 Alpha virt. eigenvalues --    1.82437   1.82437   2.15187   2.15187   2.42298

 Mulliken charges:
               1
     1  H    0.289197
     2  F   -0.289197
 Sum of Mulliken charges =  -0.00000

 Dipole moment (field-independent basis, Debye):
    X=              0.0000    Y=              0.0000    Z=             -1.8803  Tot=              1.8803
 Quadrupole moment (field-independent basis, Debye-Ang):
   XX=             -5.8174   YY=             -5.8174   ZZ=             -3.7451
   XY=              0.0000   XZ=              0.0000   YZ=              0.0000

  Exact polarizability:   3.223   0.000   3.223   0.000   0.000   5.520
 Approx polarizability:   3.451  -0.000   3.451  -0.000  -0.000   6.954

                      1
                     SG
 Frequencies --   4081.3968
 Red. masses --      1.0583
 Frc consts  --     10.3868
 IR Inten    --    113.8527

 - Thermochemistry -
 -------------------
 Temperature   298.150 Kelvin.  Pressure   1.00000 Atm.
 Atom     1 has atomic number  1 and mass   1.00783

 Molecular mass:    20.00623 amu.
 Principal axes and moments of inertia in atomic units:
                           1         2         3
     Eigenvalues --     0.00000   2.90465   2.90465
           X            0.00000  -0.00000   1.00000
           Y            0.00000   1.00000   0.00000
           Z            1.00000   0.00000   0.00000
 This molecule is a prolate symmetric top.
 Rotational symmetry number  1.
 Rotational temperature (Kelvin)     29.81907
 Rotational constant (GHZ):         621.328622
 Zero-point vibrational energy      24412.2 (Joules/Mol)
                                    5.83465 (Kcal/Mol)
 Vibrational temperatures:   5872.22
          (Kelvin)

 Zero-point correction=                           0.009298 (Hartree/Particle)
 Thermal correction to Energy=                    0.011659
 Thermal correction to Enthalpy=                  0.012603
 Thermal correction to Gibbs Free Energy=        -0.007108
 Sum of electronic and zero-point Energies=           -100.483347
 Sum of electronic and thermal Energies=              -100.480987
 Sum of electronic and thermal Enthalpies=            -100.480042
 Sum of electronic and thermal Free Energies=         -100.499753

                     E (Thermal)             CV                S
                      KCal/Mol        Cal/Mol-Kelvin    Cal/Mol-Kelvin
 Total                    7.316              4.968             41.484
 Electronic               0.000              0.000              0.000
 Translational            0.889              2.981             34.922
 Rotational               0.592              1.987              6.563
 Vibrational              5.835              0.000              0.000

 Optimization completed.
    -- Stationary point found.
 Normal termination of Gaussian 16 at Thu Feb  3 12:14:28 2022.
