 Gaussian 16, Revision B.01,
 Gaussian 16:  ES64L-G16RevB.01 20-Dec-2017

 --------------------
 # b3lyp/gen opt freq
 --------------------

 -----------------------------
 hydrazoic acid, B3LYP/pcseg-2
 -----------------------------
 Symbolic Z-matrix:
 Charge =  0 Multiplicity = 1

 SCF Done:  E(RB3LYP) =  -164.856486895     A.U. after   13 cycles
 SCF Done:  E(RB3LYP) =  -164.856607398     A.U. after    9 cycles
 SCF Done:  E(RB3LYP) =  -164.856611633     A.U. after    8 cycles
 Optimization completed.
    -- Stationary point found.
 Normal termination of Gaussian 16 at Wed Jun 15 16:37:12 2022.

 ------------------------------------------------------------------
 #N Geom=AllCheck Guess=TCheck SCRF=Check GenChk RB3LYP/ChkBas Freq
 ------------------------------------------------------------------

 Structure from the checkpoint file:  "/wrk/irikura/Gau-29034.chk"
 -----------------------------
 hydrazoic acid, B3LYP/pcseg-2
 -----------------------------
 Charge =  0 Multiplicity = 1

                         Standard orientation:
 ---------------------------------------------------------------------
 Center     Atomic      Atomic             Coordinates (Angstroms)
 Number     Number       Type             X           Y           Z
 ---------------------------------------------------------------------
      1          7           0        0.085190   -1.120874    0.000000
      2          7           0        0.000000    0.111155    0.000000
      3          7           0       -0.236553    1.211540    0.000000
      4          1           0        1.059537   -1.412756    0.000000
 ---------------------------------------------------------------------

 SCF Done:  E(RB3LYP) =  -164.856611633     A.U. after    1 cycles

 The electronic state is 1-A'.
 Alpha  occ. eigenvalues --  -14.50357 -14.39886 -14.37109  -1.16193  -0.99397
 Alpha  occ. eigenvalues --   -0.63491  -0.52803  -0.52568  -0.46686  -0.33821
 Alpha  occ. eigenvalues --   -0.28815
 Alpha virt. eigenvalues --   -0.04375  -0.00345   0.00628   0.15669   0.18246
 Alpha virt. eigenvalues --    0.20212   0.22718   0.23617   0.28497   0.30788
 Alpha virt. eigenvalues --    0.31078   0.37545   0.39131   0.40534   0.40679

 Mulliken charges:
               1
     1  N   -0.350950
     2  N    0.382265
     3  N   -0.183487
     4  H    0.152172
 Sum of Mulliken charges =  -0.00000

 Dipole moment (field-independent basis, Debye):
    X=              1.7300    Y=             -0.7059    Z=              0.0000  Tot=              1.8685
 Quadrupole moment (field-independent basis, Debye-Ang):
   XX=            -14.8400   YY=            -19.8210   ZZ=            -17.2713
   XY=             -2.0167   XZ=              0.0000   YZ=              0.0000

  Exact polarizability:  15.609  -4.891  40.315  -0.000  -0.000  13.303
 Approx polarizability:  21.905 -11.351  89.868  -0.000  -0.000  17.456

                      1                      2                      3
                     A'                     A"                     A'
 Frequencies --    544.1987               610.2693              1181.6668
 Red. masses --      5.1482                 7.1570                 2.1226
 Frc consts  --      0.8983                 1.5704                 1.7463
 IR Inten    --     15.8843                 0.1982               224.6019

                      4                      5                      6
                     A'                     A'                     A'
 Frequencies --   1301.8834              2271.3109              3491.8551
 Red. masses --      2.4696                12.1267                 1.0739
 Frc consts  --      2.4662                36.8592                 7.7150
 IR Inten    --      1.1510               403.7701                49.4044

 - Thermochemistry -
 -------------------
 Temperature   298.150 Kelvin.  Pressure   1.00000 Atm.
 Atom     1 has atomic number  7 and mass  14.00307

 Molecular mass:    43.01705 amu.
 Principal axes and moments of inertia in atomic units:
                           1         2         3
     Eigenvalues --     2.89619 148.07661 150.97280
           X           -0.17036   0.98538   0.00000
           Y            0.98538   0.17036   0.00000
           Z           -0.00000   0.00000   1.00000
 This molecule is an asymmetric top.
 Rotational symmetry number  1.
 Rotational temperatures (Kelvin)     29.90615     0.58493     0.57371
 Rotational constants (GHZ):         623.14300    12.18789    11.95408
 Zero-point vibrational energy      56231.6 (Joules/Mol)
                                   13.43967 (Kcal/Mol)
 Warning -- explicit consideration of   2 degrees of freedom as
           vibrations may cause significant error
 Vibrational temperatures:    782.98   878.04  1700.16  1873.12  3267.91
          (Kelvin)           5024.00

 Zero-point correction=                           0.021417 (Hartree/Particle)
 Thermal correction to Energy=                    0.024627
 Thermal correction to Enthalpy=                  0.025571
 Thermal correction to Gibbs Free Energy=        -0.001547
 Sum of electronic and zero-point Energies=           -164.835194
 Sum of electronic and thermal Energies=              -164.831984
 Sum of electronic and thermal Enthalpies=            -164.831040
 Sum of electronic and thermal Free Energies=         -164.858158

                     E (Thermal)             CV                S
                      KCal/Mol        Cal/Mol-Kelvin    Cal/Mol-Kelvin
 Total                   15.454              8.493             57.074
 Electronic               0.000              0.000              0.000
 Translational            0.889              2.981             37.203
 Rotational               0.889              2.981             18.810
 Vibrational             13.676              2.531              1.061
 Vibration     1          0.899              1.152              0.556
 Vibration     2          0.969              1.010              0.432

 Optimization completed.
    -- Stationary point found.
 Normal termination of Gaussian 16 at Wed Jun 15 16:37:22 2022.
