 Gaussian 16, Revision B.01,

 ---------------------------------------
 # b3lyp/gen opt freq CPHF(Grid=OneStep)
 ---------------------------------------

 -----------------------------
 hydrazoic acid, B3LYP/pcseg-2
 -----------------------------
 Symbolic Z-matrix:
 Charge =  0 Multiplicity = 1

 SCF Done:  E(RB3LYP) =  -164.856611633     A.U. after   13 cycles
 Optimization completed.
    -- Stationary point found.
 Normal termination of Gaussian 16 at Fri Sep 29 18:46:43 2023.

 ------------------------------------------------------------------
 #N Geom=AllCheck Guess=TCheck SCRF=Check GenChk RB3LYP/ChkBas Freq
 ------------------------------------------------------------------

 Structure from the checkpoint file:  "hn3.chk"
 -----------------------------
 hydrazoic acid, B3LYP/pcseg-2
 -----------------------------
 Charge =  0 Multiplicity = 1

 SCF Done:  E(RB3LYP) =  -164.856611633     A.U. after    1 cycles

  Exact polarizability:  15.609  -4.891  40.315   0.000   0.000  13.303
 Approx polarizability:  21.905 -11.351  89.868  -0.000  -0.000  17.456

                      1                      2                      3
                     A'                     A"                     A'
 Frequencies --    544.1989               610.2677              1181.6752
 Red. masses --      5.1482                 7.1570                 2.1226
 Frc consts  --      0.8983                 1.5704                 1.7463
 IR Inten    --     15.8840                 0.1982               224.5937

                      4                      5                      6
                     A'                     A'                     A'
 Frequencies --   1301.8824              2271.3308              3491.8485
 Red. masses --      2.4697                12.1269                 1.0739
 Frc consts  --      2.4662                36.8605                 7.7149
 IR Inten    --      1.1506               403.7830                49.4053

 - Thermochemistry -
 -------------------
 Temperature   298.150 Kelvin.  Pressure   1.00000 Atm.
 Atom     1 has atomic number  7 and mass  14.00307

 Molecular mass:    43.01705 amu.
 Principal axes and moments of inertia in atomic units:
                           1         2         3
     Eigenvalues --     2.89620 148.07660 150.97280
           X           -0.17036   0.98538   0.00000
           Y            0.98538   0.17036   0.00000
           Z           -0.00000   0.00000   1.00000
 This molecule is an asymmetric top.
 Rotational symmetry number  1.
 Rotational temperatures (Kelvin)     29.90607     0.58493     0.57371
 Rotational constants (GHZ):         623.14145    12.18789    11.95408
 Zero-point vibrational energy      56231.7 (Joules/Mol)
                                   13.43970 (Kcal/Mol)
 Warning -- explicit consideration of   2 degrees of freedom as
           vibrations may cause significant error
 Vibrational temperatures:    782.98   878.04  1700.17  1873.12  3267.94
          (Kelvin)           5023.99

 Zero-point correction=                           0.021418 (Hartree/Particle)
 Thermal correction to Energy=                    0.024627
 Thermal correction to Enthalpy=                  0.025571
 Thermal correction to Gibbs Free Energy=        -0.001547
 Sum of electronic and zero-point Energies=           -164.835194
 Sum of electronic and thermal Energies=              -164.831984
 Sum of electronic and thermal Enthalpies=            -164.831040
 Sum of electronic and thermal Free Energies=         -164.858158

                     E (Thermal)             CV                S
                      KCal/Mol        Cal/Mol-Kelvin    Cal/Mol-Kelvin
 Total                   15.454              8.493             57.074
 Electronic               0.000              0.000              0.000
 Translational            0.889              2.981             37.203
 Rotational               0.889              2.981             18.810
 Vibrational             13.676              2.531              1.061
 Vibration     1          0.899              1.152              0.556
 Vibration     2          0.969              1.010              0.432

 Optimization completed.
    -- Stationary point found.
 Normal termination of Gaussian 16 at Fri Sep 29 18:47:09 2023.
 Gaussian 16:  ES64L-G16RevB.01 20-Dec-2017

 ---------------------------------
 # rohf/gen geom=check guess=check
 ---------------------------------

 --------------------------------
 hydrazoic acid, ROHF/cc-pVTZ-F12
 --------------------------------
 Structure from the checkpoint file:  "hn3.chk"
 Charge =  0 Multiplicity = 1

                         Standard orientation:
 ---------------------------------------------------------------------
 Center     Atomic      Atomic             Coordinates (Angstroms)
 Number     Number       Type             X           Y           Z
 ---------------------------------------------------------------------
      1          7           0        0.085192   -1.120873    0.000000
      2          7           0        0.000000    0.111155    0.000000
      3          7           0       -0.236555    1.211540    0.000000
      4          1           0        1.059539   -1.412754    0.000000
 ---------------------------------------------------------------------

 SCF Done:  E(ROHF) =  -163.915884282     A.U. after   13 cycles

 The electronic state is 1-A'.
 Alpha  occ. eigenvalues --  -15.79218 -15.67439 -15.61010  -1.51570  -1.29137
 Alpha  occ. eigenvalues --   -0.82909  -0.71129  -0.70743  -0.67273  -0.47072
 Alpha  occ. eigenvalues --   -0.40435
 Alpha virt. eigenvalues --    0.07019   0.08211   0.08695   0.09357   0.10700
 Alpha virt. eigenvalues --    0.13330   0.14369   0.15327   0.16987   0.17857
 Alpha virt. eigenvalues --    0.18881   0.20270   0.23805   0.28604   0.29036

 Mulliken charges and spin densities:
               1          2
     1  N   -0.425215   0.000000
     2  N    0.209270   0.000000
     3  N   -0.041143   0.000000
     4  H    0.257088   0.000000
 Sum of Mulliken charges =  -0.00000   0.00000

 Dipole moment (field-independent basis, Debye):
    X=              1.6881    Y=             -0.1833    Z=              0.0000  Tot=              1.6980
 Quadrupole moment (field-independent basis, Debye-Ang):
   XX=            -14.9118   YY=            -19.7452   ZZ=            -17.5050
   XY=             -2.1646   XZ=              0.0000   YZ=              0.0000

 Normal termination of Gaussian 16 at Fri Sep 29 18:47:18 2023.
