 Gaussian 16, Revision B.01,
 Gaussian 16:  ES64L-G16RevB.01 20-Dec-2017

 --------------------
 # b3lyp/gen opt freq
 --------------------

 ----------------------------------
 hydrogen isocyanide, B3LYP/pcseg-2
 ----------------------------------
 Symbolic Z-matrix:
 Charge =  0 Multiplicity = 1

 SCF Done:  E(RB3LYP) =  -93.4421451397     A.U. after   11 cycles
 SCF Done:  E(RB3LYP) =  -93.4422156036     A.U. after    7 cycles
 SCF Done:  E(RB3LYP) =  -93.4422160449     A.U. after    6 cycles
 Optimization completed.
    -- Stationary point found.
 Normal termination of Gaussian 16 at Wed Jun 15 21:00:27 2022.

 ------------------------------------------------------------------
 #N Geom=AllCheck Guess=TCheck SCRF=Check GenChk RB3LYP/ChkBas Freq
 ------------------------------------------------------------------

 Structure from the checkpoint file:  "/wrk/irikura/Gau-23880.chk"
 ----------------------------------
 hydrogen isocyanide, B3LYP/pcseg-2
 ----------------------------------
 Charge =  0 Multiplicity = 1

                         Standard orientation:
 ---------------------------------------------------------------------
 Center     Atomic      Atomic             Coordinates (Angstroms)
 Number     Number       Type             X           Y           Z
 ---------------------------------------------------------------------
      1          6           0        0.000000    0.000000   -0.736349
      2          7           0        0.000000    0.000000    0.427663
      3          1           0        0.000000    0.000000    1.424453
 ---------------------------------------------------------------------

 SCF Done:  E(RB3LYP) =  -93.4422160449     A.U. after    1 cycles

 The electronic state is 1-SG.
 Alpha  occ. eigenvalues --  -14.36212 -10.23126  -0.96001  -0.67738  -0.39105
 Alpha  occ. eigenvalues --   -0.39105  -0.32879
 Alpha virt. eigenvalues --    0.00191   0.00191   0.00406   0.12361   0.17603
 Alpha virt. eigenvalues --    0.18094   0.18094   0.25279   0.33010   0.33010
 Alpha virt. eigenvalues --    0.40569   0.57128   0.73148   0.78082   0.78082

 Mulliken charges:
               1
     1  C    0.017989
     2  N   -0.211036
     3  H    0.193047
 Sum of Mulliken charges =  -0.00000

 Dipole moment (field-independent basis, Debye):
    X=              0.0000    Y=              0.0000    Z=              3.0650  Tot=              3.0650
 Quadrupole moment (field-independent basis, Debye-Ang):
   XX=            -12.0986   YY=            -12.0986   ZZ=            -10.5321
   XY=              0.0000   XZ=              0.0000   YZ=              0.0000

  Exact polarizability:  12.941  -0.000  12.941  -0.000  -0.000  22.871
 Approx polarizability:  17.054  -0.000  17.054  -0.000  -0.000  37.112

                      1                      2                      3
                     PI                     PI                     SG
 Frequencies --    479.6324               479.6324              2105.4438
 Red. masses --      1.2901                 1.2901                 6.9772
 Frc consts  --      0.1749                 0.1749                18.2230
 IR Inten    --    147.4378               147.4378                68.8056

                      4
                     SG
 Frequencies --   3804.1353
 Red. masses --      1.1203
 Frc consts  --      9.5523
 IR Inten    --    257.9381

 - Thermochemistry -
 -------------------
 Temperature   298.150 Kelvin.  Pressure   1.00000 Atm.
 Atom     1 has atomic number  6 and mass  12.00000

 Molecular mass:    27.01090 amu.
 Principal axes and moments of inertia in atomic units:
                           1         2         3
     Eigenvalues --     0.00000  39.42010  39.42010
           X            0.00000  -0.00000   1.00000
           Y            0.00000   1.00000   0.00000
           Z            1.00000   0.00000   0.00000
 This molecule is a prolate symmetric top.
 Rotational symmetry number  1.
 Rotational temperature (Kelvin)      2.19720
 Rotational constant (GHZ):          45.782255
 Zero-point vibrational energy      41084.8 (Joules/Mol)
                                    9.81951 (Kcal/Mol)
 Warning -- explicit consideration of   2 degrees of freedom as
           vibrations may cause significant error
 Vibrational temperatures:    690.08   690.08  3029.26  5473.30
          (Kelvin)

 Zero-point correction=                           0.015648 (Hartree/Particle)
 Thermal correction to Energy=                    0.018488
 Thermal correction to Enthalpy=                  0.019433
 Thermal correction to Gibbs Free Energy=        -0.003841
 Sum of electronic and zero-point Energies=            -93.426568
 Sum of electronic and thermal Energies=               -93.423728
 Sum of electronic and thermal Enthalpies=             -93.422783
 Sum of electronic and thermal Free Energies=          -93.446058

                     E (Thermal)             CV                S
                      KCal/Mol        Cal/Mol-Kelvin    Cal/Mol-Kelvin
 Total                   11.602              7.566             48.985
 Electronic               0.000              0.000              0.000
 Translational            0.889              2.981             35.816
 Rotational               0.592              1.987             11.745
 Vibrational             10.120              2.598              1.423
 Vibration     1          0.836              1.295              0.711
 Vibration     2          0.836              1.295              0.711

 Optimization completed.
    -- Stationary point found.
 Normal termination of Gaussian 16 at Wed Jun 15 21:00:32 2022.
