 Gaussian 16, Revision B.01,
 Gaussian 16:  ES64L-G16RevB.01 20-Dec-2017

 --------------------
 # b3lyp/gen opt freq
 --------------------

 --------------------------
 cyanoaminyl, B3LYP/pcseg-2
 --------------------------
 Symbolic Z-matrix:
 Charge =  0 Multiplicity = 2

 SCF Done:  E(UB3LYP) =  -148.191389287     A.U. after   16 cycles
 SCF Done:  E(UB3LYP) =  -148.191467936     A.U. after   11 cycles
 SCF Done:  E(UB3LYP) =  -148.191435832     A.U. after   12 cycles
 SCF Done:  E(UB3LYP) =  -148.191477618     A.U. after    8 cycles
 Optimization completed.
    -- Stationary point found.
 Normal termination of Gaussian 16 at Thu Jun 16 10:42:51 2022.

 ------------------------------------------------------------------
 #N Geom=AllCheck Guess=TCheck SCRF=Check GenChk UB3LYP/ChkBas Freq
 ------------------------------------------------------------------

 Structure from the checkpoint file:  "/wrk/irikura/Gau-9617.chk"
 --------------------------
 cyanoaminyl, B3LYP/pcseg-2
 --------------------------
 Charge =  0 Multiplicity = 2

                         Standard orientation:
 ---------------------------------------------------------------------
 Center     Atomic      Atomic             Coordinates (Angstroms)
 Number     Number       Type             X           Y           Z
 ---------------------------------------------------------------------
      1          6           0        0.000000    0.109431   -0.000000
      2          7           0       -0.070387    1.295039   -0.000000
      3          7           0       -0.053065   -1.159519    0.000000
      4          1           0        0.864158   -1.605227    0.000000
 ---------------------------------------------------------------------

 SCF Done:  E(UB3LYP) =  -148.191477618     A.U. after    1 cycles

 The electronic state is 2-A".
 Alpha  occ. eigenvalues --  -14.40146 -14.36673 -10.27331  -0.99804  -0.93028
 Alpha  occ. eigenvalues --   -0.60988  -0.46108  -0.44864  -0.41551  -0.33108
 Alpha  occ. eigenvalues --   -0.33053
 Alpha virt. eigenvalues --   -0.01114   0.01656   0.04132   0.08922   0.14073
 Alpha virt. eigenvalues --    0.15295   0.18424   0.24821   0.28222   0.29342
 Alpha virt. eigenvalues --    0.29640   0.31976   0.37921   0.40098   0.40577

  Beta  occ. eigenvalues --  -14.38841 -14.35482 -10.27667  -0.97678  -0.89989
  Beta  occ. eigenvalues --   -0.60162  -0.43951  -0.41165  -0.39928  -0.31695
  Beta virt. eigenvalues --   -0.18974  -0.00815   0.01867   0.07756   0.09141
  Beta virt. eigenvalues --    0.14249   0.15473   0.18448   0.24934   0.28952
  Beta virt. eigenvalues --    0.29878   0.31658   0.32469   0.38364   0.40525

 Mulliken charges and spin densities:
               1          2
     1  C    0.269740  -0.188876
     2  N   -0.203488   0.576393
     3  N   -0.227506   0.626660
     4  H    0.161254  -0.014176
 Sum of Mulliken charges =   0.00000   1.00000

 Dipole moment (field-independent basis, Debye):
    X=              1.6334    Y=             -2.2321    Z=              0.0000  Tot=              2.7659
 Quadrupole moment (field-independent basis, Debye-Ang):
   XX=            -16.1896   YY=            -19.7161   ZZ=            -16.5780
   XY=             -2.7466   XZ=              0.0000   YZ=              0.0000

  Exact polarizability:  16.522  -1.724  41.492  -0.000   0.000  15.653
 Approx polarizability:  21.977  -2.406  76.896   0.000  -0.000  20.102

                      1                      2                      3
                     A"                     A'                     A'
 Frequencies --    470.5200               497.2886              1056.7613
 Red. masses --      8.7014                 4.2976                 1.5171
 Frc consts  --      1.1350                 0.6262                 0.9982
 IR Inten    --      9.3100                20.3457                98.1353

                      4                      5                      6
                     A'                     A'                     A'
 Frequencies --   1202.3322              1903.6362              3471.0538
 Red. masses --      5.4801                10.5269                 1.0748
 Frc consts  --      4.6676                22.4760                 7.6296
 IR Inten    --      2.3746                 7.0058                39.0744

 - Thermochemistry -
 -------------------
 Temperature   298.150 Kelvin.  Pressure   1.00000 Atm.
 Atom     1 has atomic number  6 and mass  12.00000

 Molecular mass:    41.01397 amu.
 Principal axes and moments of inertia in atomic units:
                           1         2         3
     Eigenvalues --     2.75637 160.92000 163.67637
           X           -0.04021   0.99919   0.00000
           Y            0.99919   0.04021   0.00000
           Z            0.00000   0.00000   1.00000
 This molecule is an asymmetric top.
 Rotational symmetry number  1.
 Rotational temperatures (Kelvin)     31.42315     0.53824     0.52918
 Rotational constants (GHZ):         654.75215    11.21515    11.02628
 Zero-point vibrational energy      51448.9 (Joules/Mol)
                                   12.29659 (Kcal/Mol)
 Warning -- explicit consideration of   2 degrees of freedom as
           vibrations may cause significant error
 Vibrational temperatures:    676.97   715.49  1520.44  1729.89  2738.91
          (Kelvin)           4994.07

 Zero-point correction=                           0.019596 (Hartree/Particle)
 Thermal correction to Energy=                    0.022948
 Thermal correction to Enthalpy=                  0.023893
 Thermal correction to Gibbs Free Energy=        -0.004084
 Sum of electronic and zero-point Energies=           -148.171882
 Sum of electronic and thermal Energies=              -148.168529
 Sum of electronic and thermal Enthalpies=            -148.167585
 Sum of electronic and thermal Free Energies=         -148.195561

                     E (Thermal)             CV                S
                      KCal/Mol        Cal/Mol-Kelvin    Cal/Mol-Kelvin
 Total                   14.400              9.073             58.881
 Electronic               0.000              0.000              1.377
 Translational            0.889              2.981             37.061
 Rotational               0.889              2.981             18.924
 Vibrational             12.623              3.111              1.518
 Vibration     1          0.828              1.315              0.736
 Vibration     2          0.853              1.256              0.665

 Optimization completed.
    -- Stationary point found.
 Normal termination of Gaussian 16 at Thu Jun 16 10:43:04 2022.
