 Gaussian 16, Revision B.01,

 ---------------------------------------
 # b3lyp/gen opt freq CPHF(Grid=OneStep)
 ---------------------------------------

 --------------------------
 cyanoaminyl, B3LYP/pcseg-2
 --------------------------
 Symbolic Z-matrix:
 Charge =  0 Multiplicity = 2

 SCF Done:  E(UB3LYP) =  -148.191477619     A.U. after   16 cycles
 Optimization completed.
    -- Stationary point found.
 Normal termination of Gaussian 16 at Tue Jan  2 17:57:31 2024.

 ------------------------------------------------------------------
 #N Geom=AllCheck Guess=TCheck SCRF=Check GenChk UB3LYP/ChkBas Freq
 ------------------------------------------------------------------

 Structure from the checkpoint file:  "hncn.chk"
 --------------------------
 cyanoaminyl, B3LYP/pcseg-2
 --------------------------
 Charge =  0 Multiplicity = 2

 SCF Done:  E(UB3LYP) =  -148.191477619     A.U. after    1 cycles

  Exact polarizability:  16.522  -1.724  41.492   0.000   0.000  15.653
 Approx polarizability:  21.977  -2.406  76.896  -0.000  -0.000  20.102

                      1                      2                      3
                     A"                     A'                     A'
 Frequencies --    470.5084               497.2900              1056.7627
 Red. masses --      8.7013                 4.2976                 1.5171
 Frc consts  --      1.1349                 0.6262                 0.9982
 IR Inten    --      9.3112                20.3456                98.1359

                      4                      5                      6
                     A'                     A'                     A'
 Frequencies --   1202.3359              1903.6405              3471.0509
 Red. masses --      5.4803                10.5269                 1.0748
 Frc consts  --      4.6678                22.4761                 7.6296
 IR Inten    --      2.3736                 7.0039                39.0752

 - Thermochemistry -
 -------------------
 Temperature   298.150 Kelvin.  Pressure   1.00000 Atm.
 Atom     1 has atomic number  6 and mass  12.00000

 Molecular mass:    41.01397 amu.
 Principal axes and moments of inertia in atomic units:
                           1         2         3
     Eigenvalues --     2.75638 160.91999 163.67637
           X           -0.04021   0.99919   0.00000
           Y            0.99919   0.04021   0.00000
           Z           -0.00000   0.00000   1.00000
 This molecule is an asymmetric top.
 Rotational symmetry number  1.
 Rotational temperatures (Kelvin)     31.42311     0.53824     0.52918
 Rotational constants (GHZ):         654.75138    11.21515    11.02628
 Zero-point vibrational energy      51448.9 (Joules/Mol)
                                   12.29659 (Kcal/Mol)
 Warning -- explicit consideration of   2 degrees of freedom as
           vibrations may cause significant error
 Vibrational temperatures:    676.96   715.49  1520.45  1729.89  2738.91
          (Kelvin)           4994.07

 Zero-point correction=                           0.019596 (Hartree/Particle)
 Thermal correction to Energy=                    0.022948
 Thermal correction to Enthalpy=                  0.023893
 Thermal correction to Gibbs Free Energy=        -0.004084
 Sum of electronic and zero-point Energies=           -148.171882
 Sum of electronic and thermal Energies=              -148.168529
 Sum of electronic and thermal Enthalpies=            -148.167585
 Sum of electronic and thermal Free Energies=         -148.195561

                     E (Thermal)             CV                S
                      KCal/Mol        Cal/Mol-Kelvin    Cal/Mol-Kelvin
 Total                   14.400              9.073             58.881
 Electronic               0.000              0.000              1.377
 Translational            0.889              2.981             37.061
 Rotational               0.889              2.981             18.924
 Vibrational             12.623              3.111              1.518
 Vibration     1          0.828              1.315              0.736
 Vibration     2          0.853              1.256              0.665

 Optimization completed.
    -- Stationary point found.
 Normal termination of Gaussian 16 at Tue Jan  2 17:58:12 2024.
 Gaussian 16:  ES64L-G16RevB.01 20-Dec-2017

 ---------------------
 # rohf/gen geom=check
 ---------------------

 -----------------------------
 cyanoaminyl, ROHF/cc-pVTZ-F12
 -----------------------------
 Structure from the checkpoint file:  "hncn.chk"
 Charge =  0 Multiplicity = 2

                         Standard orientation:
 ---------------------------------------------------------------------
 Center     Atomic      Atomic             Coordinates (Angstroms)
 Number     Number       Type             X           Y           Z
 ---------------------------------------------------------------------
      1          6           0        0.000000    0.109431    0.000000
      2          7           0       -0.070390    1.295039    0.000000
      3          7           0       -0.053062   -1.159519    0.000000
      4          1           0        0.864162   -1.605225    0.000000
 ---------------------------------------------------------------------

 SCF Done:  E(ROHF) =  -147.333003287     A.U. after   28 cycles

 The electronic state is 2-A".
 Alpha  occ. eigenvalues --  -15.65550 -15.60887 -11.33069  -1.29037  -1.18951
 Alpha  occ. eigenvalues --   -0.80203  -0.61742  -0.58570  -0.52753  -0.45223
 Alpha  occ. eigenvalues --   -0.15845
 Alpha virt. eigenvalues --    0.03605   0.06651   0.06836   0.06949   0.12460
 Alpha virt. eigenvalues --    0.13026   0.13821   0.16196   0.17375   0.17996
 Alpha virt. eigenvalues --    0.20345   0.20710   0.24076   0.24478   0.25068

 Mulliken charges and spin densities:
               1          2
     1  C    0.373255   0.044774
     2  N   -0.287409   0.217046
     3  N   -0.362459   0.721302
     4  H    0.276612   0.016879
 Sum of Mulliken charges =  -0.00000   1.00000

 Dipole moment (field-independent basis, Debye):
    X=              1.7061    Y=             -2.8741    Z=              0.0000  Tot=              3.3424
 Quadrupole moment (field-independent basis, Debye-Ang):
   XX=            -16.2096   YY=            -19.4598   ZZ=            -16.8005
   XY=             -2.8807   XZ=              0.0000   YZ=              0.0000

 Normal termination of Gaussian 16 at Tue Jan  2 17:58:24 2024.
