 Gaussian 16, Revision B.01,
 Gaussian 16:  ES64L-G16RevB.01 20-Dec-2017

 --------------------
 # b3lyp/gen opt freq
 --------------------

 -----------------------------
 isocyanic acid, B3LYP/pcseg-2
 -----------------------------
 Symbolic Z-matrix:
 Charge =  0 Multiplicity = 1

 SCF Done:  E(RB3LYP) =  -168.758131656     A.U. after   12 cycles
 SCF Done:  E(RB3LYP) =  -168.758188788     A.U. after    9 cycles
 SCF Done:  E(RB3LYP) =  -168.758196469     A.U. after    8 cycles
 SCF Done:  E(RB3LYP) =  -168.758198456     A.U. after    8 cycles
 SCF Done:  E(RB3LYP) =  -168.758200047     A.U. after    7 cycles
 SCF Done:  E(RB3LYP) =  -168.758200335     A.U. after    7 cycles
 Optimization completed.
    -- Stationary point found.
 Normal termination of Gaussian 16 at Wed Jun 15 11:32:04 2022.

 ------------------------------------------------------------------
 #N Geom=AllCheck Guess=TCheck SCRF=Check GenChk RB3LYP/ChkBas Freq
 ------------------------------------------------------------------

 Structure from the checkpoint file:  "/wrk/irikura/Gau-11713.chk"
 -----------------------------
 isocyanic acid, B3LYP/pcseg-2
 -----------------------------
 Charge =  0 Multiplicity = 1

                         Standard orientation:
 ---------------------------------------------------------------------
 Center     Atomic      Atomic             Coordinates (Angstroms)
 Number     Number       Type             X           Y           Z
 ---------------------------------------------------------------------
      1          1           0        1.336227   -1.407697    0.000000
      2          7           0        0.381448   -1.098052    0.000000
      3          6           0       -0.000000    0.049265    0.000000
      4          8           0       -0.500795    1.099809    0.000000
 ---------------------------------------------------------------------

 SCF Done:  E(RB3LYP) =  -168.758200335     A.U. after    1 cycles

 The electronic state is 1-A'.
 Alpha  occ. eigenvalues --  -19.18567 -14.34682 -10.32306  -1.12584  -0.95743
 Alpha  occ. eigenvalues --   -0.61944  -0.52206  -0.47863  -0.47421  -0.34127
 Alpha  occ. eigenvalues --   -0.31778
 Alpha virt. eigenvalues --   -0.00925   0.00452   0.04763   0.08322   0.14171
 Alpha virt. eigenvalues --    0.15266   0.18010   0.27393   0.28397   0.32265
 Alpha virt. eigenvalues --    0.35302   0.36611   0.39182   0.47013   0.47422

 Mulliken charges:
               1
     1  H    0.169169
     2  N   -0.320563
     3  C    0.463617
     4  O   -0.312223
 Sum of Mulliken charges =  -0.00000

 Dipole moment (field-independent basis, Debye):
    X=              1.9857    Y=             -0.9501    Z=              0.0000  Tot=              2.2013
 Quadrupole moment (field-independent basis, Debye-Ang):
   XX=            -13.9548   YY=            -18.9638   ZZ=            -16.7882
   XY=             -1.3067   XZ=              0.0000   YZ=              0.0000

  Exact polarizability:  16.908  -7.299  30.824   0.000   0.000  13.164
 Approx polarizability:  24.005 -14.948  56.913  -0.000  -0.000  16.832

                      1                      2                      3
                     A'                     A"                     A'
 Frequencies --    572.6124               637.1649               779.0582
 Red. masses --      2.0024                 6.7829                 2.1333
 Frc consts  --      0.3868                 1.6224                 0.7629
 IR Inten    --     92.0249                 3.9647               202.5471

                      4                      5                      6
                     A'                     A'                     A'
 Frequencies --   1338.2873              2329.2691              3688.0227
 Red. masses --     10.0033                10.3900                 1.0847
 Frc consts  --     10.5558                33.2128                 8.6926
 IR Inten    --      0.5149               755.5516               168.7891

 - Thermochemistry -
 -------------------
 Temperature   298.150 Kelvin.  Pressure   1.00000 Atm.
 Atom     1 has atomic number  1 and mass   1.00783

 Molecular mass:    43.00581 amu.
 Principal axes and moments of inertia in atomic units:
                           1         2         3
     Eigenvalues --     1.97785 162.36309 164.34094
           X           -0.40189   0.91569   0.00000
           Y            0.91569   0.40189   0.00000
           Z           -0.00000   0.00000   1.00000
 This molecule is an asymmetric top.
 Rotational symmetry number  1.
 Rotational temperatures (Kelvin)     43.79202     0.53346     0.52704
 Rotational constants (GHZ):         912.47757    11.11546    10.98169
 Zero-point vibrational energy      55892.0 (Joules/Mol)
                                   13.35851 (Kcal/Mol)
 Warning -- explicit consideration of   1 degrees of freedom as
           vibrations may cause significant error
 Vibrational temperatures:    823.86   916.74  1120.89  1925.50  3351.30
          (Kelvin)           5306.24

 Zero-point correction=                           0.021288 (Hartree/Particle)
 Thermal correction to Energy=                    0.024531
 Thermal correction to Enthalpy=                  0.025476
 Thermal correction to Gibbs Free Energy=        -0.001582
 Sum of electronic and zero-point Energies=           -168.736912
 Sum of electronic and thermal Energies=              -168.733669
 Sum of electronic and thermal Enthalpies=            -168.732725
 Sum of electronic and thermal Free Energies=         -168.759782

                     E (Thermal)             CV                S
                      KCal/Mol        Cal/Mol-Kelvin    Cal/Mol-Kelvin
 Total                   15.394              8.826             56.948
 Electronic               0.000              0.000              0.000
 Translational            0.889              2.981             37.203
 Rotational               0.889              2.981             18.607
 Vibrational             13.616              2.864              1.138
 Vibration     1          0.929              1.090              0.499

 Optimization completed.
    -- Stationary point found.
 Normal termination of Gaussian 16 at Wed Jun 15 11:32:14 2022.
