 Gaussian 16, Revision B.01,
 Gaussian 16:  ES64L-G16RevB.01 20-Dec-2017

 --------------------
 # b3lyp/gen opt freq
 --------------------

 ----------------------------
 trans-diazene, B3LYP/pcseg-2
 ----------------------------
 Symbolic Z-matrix:
 Charge =  0 Multiplicity = 1

 SCF Done:  E(RB3LYP) =  -110.690851804     A.U. after   10 cycles
 SCF Done:  E(RB3LYP) =  -110.690953781     A.U. after    7 cycles
 SCF Done:  E(RB3LYP) =  -110.690957375     A.U. after    7 cycles
 SCF Done:  E(RB3LYP) =  -110.690961187     A.U. after    6 cycles
 Optimization completed.
    -- Stationary point found.
 Normal termination of Gaussian 16 at Tue Aug 30 12:12:43 2022.

 ------------------------------------------------------------------
 #N Geom=AllCheck Guess=TCheck SCRF=Check GenChk RB3LYP/ChkBas Freq
 ------------------------------------------------------------------

 Structure from the checkpoint file:  "/wrk/irikura/Gau-15730.chk"
 ----------------------------
 trans-diazene, B3LYP/pcseg-2
 ----------------------------
 Charge =  0 Multiplicity = 1

                         Standard orientation:
 ---------------------------------------------------------------------
 Center     Atomic      Atomic             Coordinates (Angstroms)
 Number     Number       Type             X           Y           Z
 ---------------------------------------------------------------------
      1          7           0        0.000000    0.617846    0.000000
      2          7           0       -0.000000   -0.617846    0.000000
      3          1           0        0.986734    0.920830    0.000000
      4          1           0       -0.986734   -0.920830    0.000000
 ---------------------------------------------------------------------

 SCF Done:  E(RB3LYP) =  -110.690961187     A.U. after    1 cycles

 The electronic state is 1-AG.
 Alpha  occ. eigenvalues --  -14.37899 -14.37843  -1.04547  -0.70750  -0.50120
 Alpha  occ. eigenvalues --   -0.45186  -0.40746  -0.25287
 Alpha virt. eigenvalues --   -0.06887   0.02335   0.03127   0.18586   0.23215
 Alpha virt. eigenvalues --    0.24262   0.29771   0.30343   0.31788   0.34454
 Alpha virt. eigenvalues --    0.36632   0.39070   0.49293   0.56475   0.70132

 Mulliken charges:
               1
     1  N   -0.138688
     2  N   -0.138688
     3  H    0.138688
     4  H    0.138688
 Sum of Mulliken charges =   0.00000

 Dipole moment (field-independent basis, Debye):
    X=              0.0000    Y=              0.0000    Z=             -0.0000  Tot=              0.0000
 Quadrupole moment (field-independent basis, Debye-Ang):
   XX=            -10.6257   YY=            -13.2417   ZZ=            -12.2641
   XY=              3.5631   XZ=              0.0000   YZ=             -0.0000

  Exact polarizability:  17.026   3.565  22.015   0.000   0.000  10.893
 Approx polarizability:  22.003   5.288  34.213   0.000   0.000  14.685

                      1                      2                      3
                     AU                     BU                     AG
 Frequencies --   1346.5261              1355.8236              1593.1941
 Red. masses --      1.0748                 1.0748                 1.5468
 Frc consts  --      1.1482                 1.1641                 2.3132
 IR Inten    --     92.6151                85.1011                 0.0000

                      4                      5                      6
                     AG                     AG                     BU
 Frequencies --   1651.6392              3229.4228              3261.7430
 Red. masses --      4.1505                 1.0718                 1.0748
 Frc consts  --      6.6709                 6.5856                 6.7371
 IR Inten    --      0.0000                 0.0000                28.2973

 - Thermochemistry -
 -------------------
 Temperature   298.150 Kelvin.  Pressure   1.00000 Atm.
 Atom     1 has atomic number  7 and mass  14.00307

 Molecular mass:    30.02180 amu.
 Principal axes and moments of inertia in atomic units:
                           1         2         3
     Eigenvalues --     5.89402  45.39551  51.28953
           X            0.16795   0.98579   0.00000
           Y            0.98579  -0.16795   0.00000
           Z            0.00000   0.00000   1.00000
 This molecule is an asymmetric top.
 Rotational symmetry number  2.
 Rotational temperatures (Kelvin)     14.69522     1.90798     1.68873
 Rotational constants (GHZ):         306.19868    39.75594    35.18732
 Zero-point vibrational energy      74397.8 (Joules/Mol)
                                   17.78151 (Kcal/Mol)
 Vibrational temperatures:   1937.35  1950.73  2292.25  2376.34  4646.42
          (Kelvin)           4692.92

 Zero-point correction=                           0.028337 (Hartree/Particle)
 Thermal correction to Energy=                    0.031193
 Thermal correction to Enthalpy=                  0.032137
 Thermal correction to Gibbs Free Energy=         0.007392
 Sum of electronic and zero-point Energies=           -110.662625
 Sum of electronic and thermal Energies=              -110.659768
 Sum of electronic and thermal Enthalpies=            -110.658824
 Sum of electronic and thermal Free Energies=         -110.683569

                     E (Thermal)             CV                S
                      KCal/Mol        Cal/Mol-Kelvin    Cal/Mol-Kelvin
 Total                   19.574              6.309             52.081
 Electronic               0.000              0.000              0.000
 Translational            0.889              2.981             36.131
 Rotational               0.889              2.981             15.891
 Vibrational             17.797              0.347              0.058

 Optimization completed.
    -- Stationary point found.
 Normal termination of Gaussian 16 at Tue Aug 30 12:12:58 2022.
