 Gaussian 16, Revision B.01,
 Gaussian 16:  ES64L-G16RevB.01 20-Dec-2017

 --------------------
 # b3lyp/gen opt freq
 --------------------

 ------------------
 HNO, B3LYP/pcseg-2
 ------------------
 Symbolic Z-matrix:
 Charge =  0 Multiplicity = 1

 SCF Done:  E(RB3LYP) =  -130.508009727     A.U. after   11 cycles
 SCF Done:  E(RB3LYP) =  -130.527661073     A.U. after   12 cycles
 SCF Done:  E(RB3LYP) =  -130.529424515     A.U. after   11 cycles
 SCF Done:  E(RB3LYP) =  -130.529518761     A.U. after    8 cycles
 SCF Done:  E(RB3LYP) =  -130.529524413     A.U. after    8 cycles
 Optimization completed.
    -- Stationary point found.
 Normal termination of Gaussian 16 at Wed Feb  2 17:56:59 2022.

 ------------------------------------------------------------------
 #N Geom=AllCheck Guess=TCheck SCRF=Check GenChk RB3LYP/ChkBas Freq
 ------------------------------------------------------------------

 Structure from the checkpoint file:  "/wrk/irikura/Gau-15608.chk"
 ------------------
 HNO, B3LYP/pcseg-2
 ------------------
 Charge =  0 Multiplicity = 1

                         Standard orientation:
 ---------------------------------------------------------------------
 Center     Atomic      Atomic             Coordinates (Angstroms)
 Number     Number       Type             X           Y           Z
 ---------------------------------------------------------------------
      1          7           0        0.062799    0.577546   -0.000000
      2          1           0       -0.941981    0.919815    0.000000
      3          8           0        0.062799   -0.620330    0.000000
 ---------------------------------------------------------------------

 SCF Done:  E(RB3LYP) =  -130.529524413     A.U. after    1 cycles

 The electronic state is 1-A'.
 Alpha  occ. eigenvalues --  -19.21596 -14.45140  -1.19195  -0.73525  -0.54677
 Alpha  occ. eigenvalues --   -0.47780  -0.46619  -0.25587
 Alpha virt. eigenvalues --   -0.11931   0.00853   0.14022   0.24320   0.24422
 Alpha virt. eigenvalues --    0.26726   0.32975   0.36258   0.38589   0.38925
 Alpha virt. eigenvalues --    0.44368   0.70495   0.72840   0.81852   1.06160

 Mulliken charges:
               1
     1  N    0.065859
     2  H    0.117200
     3  O   -0.183058
 Sum of Mulliken charges =  -0.00000

 Dipole moment (field-independent basis, Debye):
    X=             -1.4475    Y=              0.9371    Z=              0.0000  Tot=              1.7244
 Quadrupole moment (field-independent basis, Debye-Ang):
   XX=            -11.2065   YY=            -12.0616   ZZ=            -10.6008
   XY=             -1.4404   XZ=              0.0000   YZ=              0.0000

  Exact polarizability:  12.815  -2.861  17.020   0.000  -0.000   8.321
 Approx polarizability:  15.862  -4.285  28.366  -0.000  -0.000  11.335

                      1                      2                      3
                     A'                     A'                     A'
 Frequencies --   1564.8536              1665.5885              2859.5342
 Red. masses --      1.2600                 7.4712                 1.0772
 Frc consts  --      1.8179                12.2116                 5.1897
 IR Inten    --      6.5530                86.8993               152.7326

 - Thermochemistry -
 -------------------
 Temperature   298.150 Kelvin.  Pressure   1.00000 Atm.
 Atom     1 has atomic number  7 and mass  14.00307

 Molecular mass:    31.00581 amu.
 Principal axes and moments of inertia in atomic units:
                           1         2         3
     Eigenvalues --     3.20864  41.91665  45.12530
           X           -0.08902   0.99603   0.00000
           Y            0.99603   0.08902   0.00000
           Z           -0.00000  -0.00000   1.00000
 This molecule is an asymmetric top.
 Rotational symmetry number  1.
 Rotational temperatures (Kelvin)     26.99394     2.06634     1.91941
 Rotational constants (GHZ):         562.46233    43.05547    39.99400
 Zero-point vibrational energy      36426.1 (Joules/Mol)
                                    8.70606 (Kcal/Mol)
 Vibrational temperatures:   2251.48  2396.41  4114.23
          (Kelvin)

 Zero-point correction=                           0.013874 (Hartree/Particle)
 Thermal correction to Energy=                    0.016713
 Thermal correction to Enthalpy=                  0.017657
 Thermal correction to Gibbs Free Energy=        -0.007383
 Sum of electronic and zero-point Energies=           -130.515650
 Sum of electronic and thermal Energies=              -130.512812
 Sum of electronic and thermal Enthalpies=            -130.511867
 Sum of electronic and thermal Free Energies=         -130.536907

                     E (Thermal)             CV                S
                      KCal/Mol        Cal/Mol-Kelvin    Cal/Mol-Kelvin
 Total                   10.487              6.063             52.700
 Electronic               0.000              0.000              0.000
 Translational            0.889              2.981             36.227
 Rotational               0.889              2.981             16.458
 Vibrational              8.710              0.101              0.015

 Optimization completed.
    -- Stationary point found.
 Normal termination of Gaussian 16 at Wed Feb  2 17:57:23 2022.
