 Gaussian 16, Revision B.01,

 ---------------------------------------
 # b3lyp/gen opt freq CPHF(Grid=OneStep)
 ---------------------------------------

 ------------------
 HNO, B3LYP/pcseg-2
 ------------------
 Symbolic Z-matrix:
 Charge =  0 Multiplicity = 1

 SCF Done:  E(RB3LYP) =  -130.529524413     A.U. after   11 cycles
 Optimization completed.
    -- Stationary point found.
 Normal termination of Gaussian 16 at Fri Sep 29 18:52:44 2023.

 ------------------------------------------------------------------
 #N Geom=AllCheck Guess=TCheck SCRF=Check GenChk RB3LYP/ChkBas Freq
 ------------------------------------------------------------------

 Structure from the checkpoint file:  "hno.chk"
 ------------------
 HNO, B3LYP/pcseg-2
 ------------------
 Charge =  0 Multiplicity = 1

 SCF Done:  E(RB3LYP) =  -130.529524413     A.U. after    1 cycles

  Exact polarizability:  12.815  -2.861  17.020   0.000   0.000   8.321
 Approx polarizability:  15.862  -4.285  28.366  -0.000  -0.000  11.335

                      1                      2                      3
                     A'                     A'                     A'
 Frequencies --   1564.8531              1665.5921              2859.5290
 Red. masses --      1.2600                 7.4714                 1.0772
 Frc consts  --      1.8179                12.2121                 5.1897
 IR Inten    --      6.5518                86.8948               152.7261

 - Thermochemistry -
 -------------------
 Temperature   298.150 Kelvin.  Pressure   1.00000 Atm.
 Atom     1 has atomic number  7 and mass  14.00307

 Molecular mass:    31.00581 amu.
 Principal axes and moments of inertia in atomic units:
                           1         2         3
     Eigenvalues --     3.20865  41.91664  45.12528
           X           -0.08902   0.99603   0.00000
           Y            0.99603   0.08902   0.00000
           Z           -0.00000   0.00000   1.00000
 This molecule is an asymmetric top.
 Rotational symmetry number  1.
 Rotational temperatures (Kelvin)     26.99390     2.06634     1.91941
 Rotational constants (GHZ):         562.46159    43.05549    39.99401
 Zero-point vibrational energy      36426.1 (Joules/Mol)
                                    8.70606 (Kcal/Mol)
 Vibrational temperatures:   2251.47  2396.42  4114.22
          (Kelvin)

 Zero-point correction=                           0.013874 (Hartree/Particle)
 Thermal correction to Energy=                    0.016713
 Thermal correction to Enthalpy=                  0.017657
 Thermal correction to Gibbs Free Energy=        -0.007383
 Sum of electronic and zero-point Energies=           -130.515650
 Sum of electronic and thermal Energies=              -130.512812
 Sum of electronic and thermal Enthalpies=            -130.511867
 Sum of electronic and thermal Free Energies=         -130.536907

                     E (Thermal)             CV                S
                      KCal/Mol        Cal/Mol-Kelvin    Cal/Mol-Kelvin
 Total                   10.487              6.063             52.700
 Electronic               0.000              0.000              0.000
 Translational            0.889              2.981             36.227
 Rotational               0.889              2.981             16.458
 Vibrational              8.710              0.101              0.015

 Optimization completed.
    -- Stationary point found.
 Normal termination of Gaussian 16 at Fri Sep 29 18:52:56 2023.
 Gaussian 16:  ES64L-G16RevB.01 20-Dec-2017

 ---------------------------------
 # rohf/gen geom=check guess=check
 ---------------------------------

 ---------------------
 HNO, ROHF/cc-pVTZ-F12
 ---------------------
 Structure from the checkpoint file:  "hno.chk"
 Charge =  0 Multiplicity = 1

                         Standard orientation:
 ---------------------------------------------------------------------
 Center     Atomic      Atomic             Coordinates (Angstroms)
 Number     Number       Type             X           Y           Z
 ---------------------------------------------------------------------
      1          7           0        0.062799    0.577546    0.000000
      2          1           0       -0.941981    0.919815    0.000000
      3          8           0        0.062799   -0.620330    0.000000
 ---------------------------------------------------------------------

 SCF Done:  E(ROHF) =  -129.848068765     A.U. after   11 cycles

 The electronic state is 1-A'.
 Alpha  occ. eigenvalues --  -20.65311 -15.71217  -1.53772  -0.99028  -0.74932
 Alpha  occ. eigenvalues --   -0.66919  -0.60106  -0.42646
 Alpha virt. eigenvalues --    0.06603   0.07419   0.08912   0.11204   0.12035
 Alpha virt. eigenvalues --    0.17100   0.18089   0.19024   0.22048   0.31828
 Alpha virt. eigenvalues --    0.43839   0.45646   0.47723   0.52146   0.55607

 Mulliken charges and spin densities:
               1          2
     1  N   -0.005808   0.000000
     2  H    0.242848   0.000000
     3  O   -0.237040   0.000000
 Sum of Mulliken charges =   0.00000   0.00000

 Dipole moment (field-independent basis, Debye):
    X=             -1.5547    Y=              1.1894    Z=              0.0000  Tot=              1.9575
 Quadrupole moment (field-independent basis, Debye-Ang):
   XX=            -10.8874   YY=            -11.7660   ZZ=            -10.6834
   XY=             -1.6281   XZ=              0.0000   YZ=              0.0000

 Normal termination of Gaussian 16 at Fri Sep 29 18:52:59 2023.
