 Gaussian 16, Revision B.01,
 Gaussian 16:  ES64L-G16RevB.01 20-Dec-2017

 -------------------------------
 # b3lyp/gen opt freq symm=loose
 -------------------------------

 -------------------------------------
 nitryl hydride (H-NO2), B3LYP/pcseg-2
 -------------------------------------
 Symbolic Z-matrix:
 Charge =  0 Multiplicity = 1

 SCF Done:  E(RB3LYP) =  -205.785298191     A.U. after   11 cycles
 SCF Done:  E(RB3LYP) =  -205.785321001     A.U. after    7 cycles
 SCF Done:  E(RB3LYP) =  -205.785322001     A.U. after    7 cycles
 Optimization completed.
    -- Stationary point found.
 Normal termination of Gaussian 16 at Thu Jun 16 13:38:55 2022.

 ------------------------------------------------------------------
 #N Geom=AllCheck Guess=TCheck SCRF=Check GenChk RB3LYP/ChkBas Freq
 ------------------------------------------------------------------

 Structure from the checkpoint file:  "/wrk/irikura/Gau-20988.chk"
 -------------------------------------
 nitryl hydride (H-NO2), B3LYP/pcseg-2
 -------------------------------------
 Charge =  0 Multiplicity = 1

                         Standard orientation:
 ---------------------------------------------------------------------
 Center     Atomic      Atomic             Coordinates (Angstroms)
 Number     Number       Type             X           Y           Z
 ---------------------------------------------------------------------
      1          7           0        0.000000   -0.000000    0.308888
      2          8           0       -0.000000    1.092485   -0.219505
      3          8           0       -0.000000   -1.092485   -0.219505
      4          1           0        0.000000   -0.000000    1.349863
 ---------------------------------------------------------------------

 SCF Done:  E(RB3LYP) =  -205.785322001     A.U. after    1 cycles

 The electronic state is 1-A1.
 Alpha  occ. eigenvalues --  -19.19270 -19.19269 -14.57922  -1.26523  -1.09820
 Alpha  occ. eigenvalues --   -0.76325  -0.59475  -0.56208  -0.54444  -0.35084
 Alpha  occ. eigenvalues --   -0.34190  -0.34067
 Alpha virt. eigenvalues --   -0.10270  -0.01275   0.11715   0.15296   0.21666
 Alpha virt. eigenvalues --    0.27541   0.28887   0.31589   0.33700   0.37806
 Alpha virt. eigenvalues --    0.38254   0.39778   0.40203   0.44810   0.45414

 Mulliken charges:
               1
     1  N    0.403370
     2  O   -0.285124
     3  O   -0.285124
     4  H    0.166879
 Sum of Mulliken charges =  -0.00000

 Dipole moment (field-independent basis, Debye):
    X=              0.0000    Y=              0.0000    Z=              2.6843  Tot=              2.6843
 Quadrupole moment (field-independent basis, Debye-Ang):
   XX=            -15.8174   YY=            -20.6215   ZZ=            -14.3916
   XY=             -0.0000   XZ=             -0.0000   YZ=              0.0000

  Exact polarizability:  10.335   0.000  28.444  -0.000   0.000  16.430
 Approx polarizability:  13.887   0.000  59.351   0.000  -0.000  22.001

                      1                      2                      3
                     A1                     B1                     A1
 Frequencies --    795.8447              1056.9793              1405.1919
 Red. masses --     12.0314                 1.6811                11.2459
 Frc consts  --      4.4897                 1.1066                13.0832
 IR Inten    --     24.5677                26.4841                47.6472

                      4                      5                      6
                     B2                     B2                     A1
 Frequencies --   1515.9049              1646.2824              3162.9395
 Red. masses --      1.1021                10.8863                 1.0735
 Frc consts  --      1.4922                17.3836                 6.3274
 IR Inten    --     66.6538               413.3772                 7.2293

 - Thermochemistry -
 -------------------
 Temperature   298.150 Kelvin.  Pressure   1.00000 Atm.
 Atom     1 has atomic number  7 and mass  14.00307

 Molecular mass:    47.00073 amu.
 Principal axes and moments of inertia in atomic units:
                           1         2         3
     Eigenvalues --    16.69761 136.34539 153.04300
           X           -0.00000   0.00000   1.00000
           Y            1.00000   0.00000   0.00000
           Z           -0.00000   1.00000  -0.00000
 This molecule is an asymmetric top.
 Rotational symmetry number  2.
 Rotational temperatures (Kelvin)      5.18720     0.63525     0.56595
 Rotational constants (GHZ):         108.08381    13.23654    11.79238
 Zero-point vibrational energy      57319.9 (Joules/Mol)
                                   13.69979 (Kcal/Mol)
 Vibrational temperatures:   1145.04  1520.76  2021.76  2181.05  2368.63
          (Kelvin)           4550.76

 Zero-point correction=                           0.021832 (Hartree/Particle)
 Thermal correction to Energy=                    0.024788
 Thermal correction to Enthalpy=                  0.025732
 Thermal correction to Gibbs Free Energy=        -0.001299
 Sum of electronic and zero-point Energies=           -205.763490
 Sum of electronic and thermal Energies=              -205.760534
 Sum of electronic and thermal Enthalpies=            -205.759590
 Sum of electronic and thermal Free Energies=         -205.786621

                     E (Thermal)             CV                S
                      KCal/Mol        Cal/Mol-Kelvin    Cal/Mol-Kelvin
 Total                   15.555              7.158             56.892
 Electronic               0.000              0.000              0.000
 Translational            0.889              2.981             37.467
 Rotational               0.889              2.981             19.105
 Vibrational             13.777              1.196              0.320

 Optimization completed.
    -- Stationary point found.
 Normal termination of Gaussian 16 at Thu Jun 16 13:39:04 2022.
