 Gaussian 16, Revision B.01,

 ---------------------------------------
 # b3lyp/gen opt freq CPHF(Grid=OneStep)
 ---------------------------------------

 -------------------------------------
 nitryl hydride (H-NO2), B3LYP/pcseg-2
 -------------------------------------
 Symbolic Z-matrix:
 Charge =  0 Multiplicity = 1

 SCF Done:  E(RB3LYP) =  -205.785322001     A.U. after   11 cycles
 Optimization completed.
    -- Stationary point found.
 Normal termination of Gaussian 16 at Sun Oct  1 05:46:03 2023.

 ------------------------------------------------------------------
 #N Geom=AllCheck Guess=TCheck SCRF=Check GenChk RB3LYP/ChkBas Freq
 ------------------------------------------------------------------

 Structure from the checkpoint file:  "hno2.chk"
 -------------------------------------
 nitryl hydride (H-NO2), B3LYP/pcseg-2
 -------------------------------------
 Charge =  0 Multiplicity = 1

 SCF Done:  E(RB3LYP) =  -205.785322001     A.U. after    1 cycles

  Exact polarizability:  10.335   0.000  28.443   0.000   0.000  16.430
 Approx polarizability:  13.887   0.000  59.351   0.000   0.000  22.001

                      1                      2                      3
                     A1                     B1                     A1
 Frequencies --    795.8470              1056.9777              1405.1884
 Red. masses --     12.0314                 1.6811                11.2459
 Frc consts  --      4.4898                 1.1066                13.0832
 IR Inten    --     24.5680                26.4846                47.6476

                      4                      5                      6
                     B2                     B2                     A1
 Frequencies --   1515.9047              1646.2974              3162.9338
 Red. masses --      1.1021                10.8867                 1.0735
 Frc consts  --      1.4922                17.3846                 6.3274
 IR Inten    --     66.6481               413.3672                 7.2314

 - Thermochemistry -
 -------------------
 Temperature   298.150 Kelvin.  Pressure   1.00000 Atm.
 Atom     1 has atomic number  7 and mass  14.00307

 Molecular mass:    47.00073 amu.
 Principal axes and moments of inertia in atomic units:
                           1         2         3
     Eigenvalues --    16.69763 136.34544 153.04307
           X            0.00000   0.00000   1.00000
           Y            1.00000   0.00000  -0.00000
           Z           -0.00000   1.00000  -0.00000
 This molecule is an asymmetric top.
 Rotational symmetry number  2.
 Rotational temperatures (Kelvin)      5.18720     0.63525     0.56594
 Rotational constants (GHZ):         108.08368    13.23653    11.79237
 Zero-point vibrational energy      57320.0 (Joules/Mol)
                                   13.69980 (Kcal/Mol)
 Vibrational temperatures:   1145.05  1520.76  2021.75  2181.05  2368.65
          (Kelvin)           4550.76

 Zero-point correction=                           0.021832 (Hartree/Particle)
 Thermal correction to Energy=                    0.024788
 Thermal correction to Enthalpy=                  0.025732
 Thermal correction to Gibbs Free Energy=        -0.001299
 Sum of electronic and zero-point Energies=           -205.763490
 Sum of electronic and thermal Energies=              -205.760534
 Sum of electronic and thermal Enthalpies=            -205.759590
 Sum of electronic and thermal Free Energies=         -205.786621

                     E (Thermal)             CV                S
                      KCal/Mol        Cal/Mol-Kelvin    Cal/Mol-Kelvin
 Total                   15.555              7.158             56.892
 Electronic               0.000              0.000              0.000
 Translational            0.889              2.981             37.467
 Rotational               0.889              2.981             19.105
 Vibrational             13.777              1.196              0.320

 Optimization completed.
    -- Stationary point found.
 Normal termination of Gaussian 16 at Sun Oct  1 05:46:26 2023.
 Gaussian 16:  ES64L-G16RevB.01 20-Dec-2017

 ---------------------------------
 # rohf/gen geom=check guess=check
 ---------------------------------

 ----------------------------------------
 nitryl hydride (H-NO2), ROHF/cc-pVTZ-F12
 ----------------------------------------
 Structure from the checkpoint file:  "hno2.chk"
 Charge =  0 Multiplicity = 1

                         Standard orientation:
 ---------------------------------------------------------------------
 Center     Atomic      Atomic             Coordinates (Angstroms)
 Number     Number       Type             X           Y           Z
 ---------------------------------------------------------------------
      1          7           0        0.000000   -0.000000    0.308888
      2          8           0        0.000000    1.092485   -0.219505
      3          8           0       -0.000000   -1.092485   -0.219505
      4          1           0        0.000000   -0.000000    1.349863
 ---------------------------------------------------------------------

 SCF Done:  E(ROHF) =  -204.718131323     A.U. after   11 cycles

 The electronic state is 1-A1.
 Alpha  occ. eigenvalues --  -20.62990 -20.62985 -15.86990  -1.63163  -1.43180
 Alpha  occ. eigenvalues --   -1.01948  -0.81747  -0.74934  -0.73333  -0.53003
 Alpha  occ. eigenvalues --   -0.52102  -0.47528
 Alpha virt. eigenvalues --    0.04623   0.06599   0.08700   0.08752   0.09543
 Alpha virt. eigenvalues --    0.16105   0.17432   0.17550   0.18158   0.20095
 Alpha virt. eigenvalues --    0.20318   0.22362   0.31398   0.32038   0.45259

 Mulliken charges and spin densities:
               1          2
     1  N    0.348457  -0.000000
     2  O   -0.357718  -0.000000
     3  O   -0.357718  -0.000000
     4  H    0.366978  -0.000000
 Sum of Mulliken charges =  -0.00000  -0.00000

 Dipole moment (field-independent basis, Debye):
    X=              0.0000    Y=              0.0000    Z=              3.0418  Tot=              3.0418
 Quadrupole moment (field-independent basis, Debye-Ang):
   XX=            -15.8706   YY=            -20.8653   ZZ=            -13.7679
   XY=             -0.0000   XZ=             -0.0000   YZ=             -0.0000

 Normal termination of Gaussian 16 at Sun Oct  1 05:46:31 2023.
