 Gaussian 16, Revision B.01,

 ---------------------------------------
 # b3lyp/gen opt freq CPHF(Grid=OneStep)
 ---------------------------------------

 --------------------------
 nitric acid, B3LYP/pcseg-2
 --------------------------
 Symbolic Z-matrix:
 Charge =  0 Multiplicity = 1

 SCF Done:  E(RB3LYP) =  -281.012271724     A.U. after   13 cycles
 Optimization completed.
    -- Stationary point found.
 Normal termination of Gaussian 16 at Wed Sep 27 20:02:32 2023.

 ------------------------------------------------------------------
 #N Geom=AllCheck Guess=TCheck SCRF=Check GenChk RB3LYP/ChkBas Freq
 ------------------------------------------------------------------

 Structure from the checkpoint file:  "hno3.chk"
 --------------------------
 nitric acid, B3LYP/pcseg-2
 --------------------------
 Charge =  0 Multiplicity = 1

 SCF Done:  E(RB3LYP) =  -281.012271724     A.U. after    1 cycles

  Exact polarizability:  29.885  -1.821  27.250   0.000   0.000  13.360
 Approx polarizability:  57.650  -4.584  41.072  -0.000  -0.000  18.120

                      1                      2                      3
                     A"                     A'                     A'
 Frequencies --    479.9795               587.8272               651.9673
 Red. masses --      1.1045                 5.3452                13.4298
 Frc consts  --      0.1499                 1.0882                 3.3634
 IR Inten    --    124.1520                 7.6050                16.0811

                      4                      5                      6
                     A"                     A'                     A'
 Frequencies --    781.9555               902.9606              1319.7640
 Red. masses --     14.1053                14.9823                 1.7872
 Frc consts  --      5.0816                 7.1972                 1.8341
 IR Inten    --     10.1021               193.4746                50.0742

                      7                      8                      9
                     A'                     A'                     A'
 Frequencies --   1347.3331              1751.0289              3725.7979
 Red. masses --      3.6976                 6.7332                 1.0661
 Frc consts  --      3.9548                12.1634                 8.7197
 IR Inten    --    321.5198               426.0130                97.1509

 - Thermochemistry -
 -------------------
 Temperature   298.150 Kelvin.  Pressure   1.00000 Atm.
 Atom     1 has atomic number  7 and mass  14.00307

 Molecular mass:    62.99564 amu.
 Principal axes and moments of inertia in atomic units:
                           1         2         3
     Eigenvalues --   137.92043 149.27235 287.19278
           X           -0.06890   0.99762   0.00000
           Y            0.99762   0.06890   0.00000
           Z           -0.00000   0.00000   1.00000
 This molecule is an asymmetric top.
 Rotational symmetry number  1.
 Rotational temperatures (Kelvin)      0.62800     0.58024     0.30159
 Rotational constants (GHZ):          13.08538    12.09026     6.28408
 Zero-point vibrational energy      69076.1 (Joules/Mol)
                                   16.50957 (Kcal/Mol)
 Warning -- explicit consideration of   2 degrees of freedom as
           vibrations may cause significant error
 Vibrational temperatures:    690.58   845.75   938.04  1125.06  1299.16
          (Kelvin)           1898.85  1938.51  2519.34  5360.59

 Zero-point correction=                           0.026310 (Hartree/Particle)
 Thermal correction to Energy=                    0.029840
 Thermal correction to Enthalpy=                  0.030784
 Thermal correction to Gibbs Free Energy=         0.000567
 Sum of electronic and zero-point Energies=           -280.985962
 Sum of electronic and thermal Energies=              -280.982431
 Sum of electronic and thermal Enthalpies=            -280.981487
 Sum of electronic and thermal Free Energies=         -281.011705

                     E (Thermal)             CV                S
                      KCal/Mol        Cal/Mol-Kelvin    Cal/Mol-Kelvin
 Total                   18.725             10.710             63.598
 Electronic               0.000              0.000              0.000
 Translational            0.889              2.981             38.341
 Rotational               0.889              2.981             23.296
 Vibrational             16.948              4.749              1.962
 Vibration     1          0.836              1.294              0.710
 Vibration     2          0.945              1.058              0.471

 Optimization completed.
    -- Stationary point found.
 Normal termination of Gaussian 16 at Wed Sep 27 20:03:36 2023.
 Gaussian 16:  ES64L-G16RevB.01 20-Dec-2017

 ---------------------------------
 # rohf/gen geom=check guess=check
 ---------------------------------

 -----------------------------
 nitric acid, ROHF/cc-pVTZ-F12
 -----------------------------
 Structure from the checkpoint file:  "hno3.chk"
 Charge =  0 Multiplicity = 1

                         Standard orientation:
 ---------------------------------------------------------------------
 Center     Atomic      Atomic             Coordinates (Angstroms)
 Number     Number       Type             X           Y           Z
 ---------------------------------------------------------------------
      1          7           0        0.000000    0.155135    0.000000
      2          8           0       -0.269789   -1.229910    0.000000
      3          8           0        1.168978    0.458360    0.000000
      4          8           0       -0.976105    0.839226    0.000000
      5          1           0        0.615327   -1.627348    0.000000
 ---------------------------------------------------------------------

 SCF Done:  E(ROHF) =  -279.579901616     A.U. after   13 cycles

 The electronic state is 1-A'.
 Alpha  occ. eigenvalues --  -20.68844 -20.64618 -20.64093 -15.93995  -1.69053
 Alpha  occ. eigenvalues --   -1.47001  -1.44232  -0.95563  -0.83042  -0.79462
 Alpha  occ. eigenvalues --   -0.78874  -0.70262  -0.58652  -0.54938  -0.53405
 Alpha  occ. eigenvalues --   -0.50115
 Alpha virt. eigenvalues --    0.05197   0.07493   0.08765   0.09098   0.11391
 Alpha virt. eigenvalues --    0.14582   0.15326   0.16343   0.17292   0.17564
 Alpha virt. eigenvalues --    0.21015   0.21498   0.22460   0.23455   0.23810

 Mulliken charges and spin densities:
               1          2
     1  N    0.653470   0.000000
     2  O   -0.384812   0.000000
     3  O   -0.373396   0.000000
     4  O   -0.317326   0.000000
     5  H    0.422064   0.000000
 Sum of Mulliken charges =  -0.00000   0.00000

 Dipole moment (field-independent basis, Debye):
    X=              1.0753    Y=             -2.3573    Z=              0.0000  Tot=              2.5910
 Quadrupole moment (field-independent basis, Debye-Ang):
   XX=            -24.5628   YY=            -20.4040   ZZ=            -21.0853
   XY=             -2.5789   XZ=              0.0000   YZ=              0.0000

 Normal termination of Gaussian 16 at Wed Sep 27 20:04:22 2023.
