 Gaussian 16, Revision B.01,
 Gaussian 16:  ES64L-G16RevB.01 20-Dec-2017

 --------------------
 # b3lyp/gen opt freq
 --------------------

 --------------------------
 nitric acid, B3LYP/pcseg-2
 --------------------------
 Symbolic Z-matrix:
 Charge =  0 Multiplicity = 1

 SCF Done:  E(RB3LYP) =  -281.012198341     A.U. after   14 cycles
 SCF Done:  E(RB3LYP) =  -281.012254632     A.U. after   11 cycles
 SCF Done:  E(RB3LYP) =  -281.012268859     A.U. after    9 cycles
 SCF Done:  E(RB3LYP) =  -281.012271724     A.U. after    8 cycles
 Optimization completed.
    -- Stationary point found.
 Normal termination of Gaussian 16 at Wed Jun 15 11:32:34 2022.

 ------------------------------------------------------------------
 #N Geom=AllCheck Guess=TCheck SCRF=Check GenChk RB3LYP/ChkBas Freq
 ------------------------------------------------------------------

 Structure from the checkpoint file:  "/wrk/irikura/Gau-12763.chk"
 --------------------------
 nitric acid, B3LYP/pcseg-2
 --------------------------
 Charge =  0 Multiplicity = 1

                         Standard orientation:
 ---------------------------------------------------------------------
 Center     Atomic      Atomic             Coordinates (Angstroms)
 Number     Number       Type             X           Y           Z
 ---------------------------------------------------------------------
      1          7           0        0.000000    0.155135    0.000000
      2          8           0       -0.269789   -1.229910    0.000000
      3          8           0        1.168978    0.458360    0.000000
      4          8           0       -0.976105    0.839226    0.000000
      5          1           0        0.615327   -1.627348    0.000000
 ---------------------------------------------------------------------

 SCF Done:  E(RB3LYP) =  -281.012271724     A.U. after    1 cycles

 The electronic state is 1-A'.
 Alpha  occ. eigenvalues --  -19.23531 -19.20601 -19.20464 -14.63863  -1.31491
 Alpha  occ. eigenvalues --   -1.13193  -1.09963  -0.72036  -0.61189  -0.60503
 Alpha  occ. eigenvalues --   -0.57151  -0.50051  -0.39374  -0.37748  -0.36608
 Alpha  occ. eigenvalues --   -0.34485
 Alpha virt. eigenvalues --   -0.09158  -0.01222   0.03916   0.13962   0.18837
 Alpha virt. eigenvalues --    0.23701   0.24222   0.26707   0.27719   0.31524
 Alpha virt. eigenvalues --    0.34877   0.36621   0.36726   0.39104   0.41421

 Mulliken charges:
               1
     1  N    0.596315
     2  O   -0.220383
     3  O   -0.327109
     4  O   -0.277047
     5  H    0.228224
 Sum of Mulliken charges =  -0.00000

 Dipole moment (field-independent basis, Debye):
    X=              1.1035    Y=             -2.0601    Z=              0.0000  Tot=              2.3370
 Quadrupole moment (field-independent basis, Debye-Ang):
   XX=            -24.5664   YY=            -20.7804   ZZ=            -21.1311
   XY=             -2.4978   XZ=              0.0000   YZ=              0.0000

  Exact polarizability:  29.885  -1.822  27.250  -0.000  -0.000  13.361
 Approx polarizability:  57.650  -4.584  41.072  -0.000  -0.000  18.120

                      1                      2                      3
                     A"                     A'                     A'
 Frequencies --    479.9786               587.8262               651.9707
 Red. masses --      1.1045                 5.3451                13.4300
 Frc consts  --      0.1499                 1.0882                 3.3634
 IR Inten    --    124.1510                 7.6039                16.0786

                      4                      5                      6
                     A"                     A'                     A'
 Frequencies --    781.9592               902.9656              1319.7620
 Red. masses --     14.1052                14.9823                 1.7870
 Frc consts  --      5.0816                 7.1973                 1.8339
 IR Inten    --     10.1015               193.4703                50.0815

                      7                      8                      9
                     A'                     A'                     A'
 Frequencies --   1347.3358              1751.0224              3725.8010
 Red. masses --      3.6987                 6.7328                 1.0661
 Frc consts  --      3.9560                12.1628                 8.7197
 IR Inten    --    321.5285               425.9970                97.1478

 - Thermochemistry -
 -------------------
 Temperature   298.150 Kelvin.  Pressure   1.00000 Atm.
 Atom     1 has atomic number  7 and mass  14.00307

 Molecular mass:    62.99564 amu.
 Principal axes and moments of inertia in atomic units:
                           1         2         3
     Eigenvalues --   137.92045 149.27242 287.19286
           X           -0.06890   0.99762   0.00000
           Y            0.99762   0.06890   0.00000
           Z           -0.00000   0.00000   1.00000
 This molecule is an asymmetric top.
 Rotational symmetry number  1.
 Rotational temperatures (Kelvin)      0.62800     0.58024     0.30159
 Rotational constants (GHZ):          13.08538    12.09025     6.28407
 Zero-point vibrational energy      69076.1 (Joules/Mol)
                                   16.50958 (Kcal/Mol)
 Warning -- explicit consideration of   2 degrees of freedom as
           vibrations may cause significant error
 Vibrational temperatures:    690.58   845.75   938.04  1125.06  1299.17
          (Kelvin)           1898.84  1938.52  2519.33  5360.60

 Zero-point correction=                           0.026310 (Hartree/Particle)
 Thermal correction to Energy=                    0.029840
 Thermal correction to Enthalpy=                  0.030785
 Thermal correction to Gibbs Free Energy=         0.000567
 Sum of electronic and zero-point Energies=           -280.985962
 Sum of electronic and thermal Energies=              -280.982431
 Sum of electronic and thermal Enthalpies=            -280.981487
 Sum of electronic and thermal Free Energies=         -281.011705

                     E (Thermal)             CV                S
                      KCal/Mol        Cal/Mol-Kelvin    Cal/Mol-Kelvin
 Total                   18.725             10.710             63.598
 Electronic               0.000              0.000              0.000
 Translational            0.889              2.981             38.341
 Rotational               0.889              2.981             23.296
 Vibrational             16.948              4.749              1.962
 Vibration     1          0.836              1.294              0.710
 Vibration     2          0.945              1.058              0.471

 Optimization completed.
    -- Stationary point found.
 Normal termination of Gaussian 16 at Wed Jun 15 11:32:55 2022.
