 Gaussian 16, Revision B.01,

 ---------------------------------------
 # b3lyp/gen opt freq CPHF(Grid=OneStep)
 ---------------------------------------

 ------------------
 HO2, B3LYP/pcseg-2
 ------------------
 Symbolic Z-matrix:
 Charge =  0 Multiplicity = 2

 SCF Done:  E(UB3LYP) =  -150.975992917     A.U. after   14 cycles
 Optimization completed.
    -- Stationary point found.
 Normal termination of Gaussian 16 at Sat Sep 30 20:47:53 2023.

 ------------------------------------------------------------------
 #N Geom=AllCheck Guess=TCheck SCRF=Check GenChk UB3LYP/ChkBas Freq
 ------------------------------------------------------------------

 Structure from the checkpoint file:  "ho2.chk"
 ------------------
 HO2, B3LYP/pcseg-2
 ------------------
 Charge =  0 Multiplicity = 2

 SCF Done:  E(UB3LYP) =  -150.975992917     A.U. after    1 cycles

  Exact polarizability:   9.032   1.505  16.821   0.000   0.000   7.102
 Approx polarizability:  11.341   1.807  25.299  -0.000  -0.000   8.647

                      1                      2                      3
                     A'                     A'                     A'
 Frequencies --   1163.2290              1432.2617              3606.9504
 Red. masses --     12.1788                 1.1422                 1.0686
 Frc consts  --      9.7092                 1.3804                 8.1913
 IR Inten    --     29.5720                37.9847                26.8443

 - Thermochemistry -
 -------------------
 Temperature   298.150 Kelvin.  Pressure   1.00000 Atm.
 Atom     1 has atomic number  8 and mass  15.99491

 Molecular mass:    32.99765 amu.
 Principal axes and moments of inertia in atomic units:
                           1         2         3
     Eigenvalues --     2.89704  53.44169  56.33874
           X            0.05993   0.99820   0.00000
           Y            0.99820  -0.05993   0.00000
           Z            0.00000  -0.00000   1.00000
 This molecule is an asymmetric top.
 Rotational symmetry number  1.
 Rotational temperatures (Kelvin)     29.89736     1.62072     1.53738
 Rotational constants (GHZ):         622.95986    33.77028    32.03375
 Zero-point vibrational energy      37098.8 (Joules/Mol)
                                    8.86683 (Kcal/Mol)
 Vibrational temperatures:   1673.63  2060.71  5189.60
          (Kelvin)

 Zero-point correction=                           0.014130 (Hartree/Particle)
 Thermal correction to Energy=                    0.016989
 Thermal correction to Enthalpy=                  0.017933
 Thermal correction to Gibbs Free Energy=        -0.008044
 Sum of electronic and zero-point Energies=           -150.961863
 Sum of electronic and thermal Energies=              -150.959004
 Sum of electronic and thermal Enthalpies=            -150.958060
 Sum of electronic and thermal Free Energies=         -150.984037

                     E (Thermal)             CV                S
                      KCal/Mol        Cal/Mol-Kelvin    Cal/Mol-Kelvin
 Total                   10.661              6.287             54.673
 Electronic               0.000              0.000              1.377
 Translational            0.889              2.981             36.413
 Rotational               0.889              2.981             16.819
 Vibrational              8.883              0.325              0.064

 Optimization completed.
    -- Stationary point found.
 Normal termination of Gaussian 16 at Sat Sep 30 20:48:11 2023.
 Gaussian 16:  ES64L-G16RevB.01 20-Dec-2017

 ---------------------------------
 # rohf/gen geom=check guess=check
 ---------------------------------

 ---------------------
 HO2, ROHF/cc-pVTZ-F12
 ---------------------
 Structure from the checkpoint file:  "ho2.chk"
 Charge =  0 Multiplicity = 2

                         Standard orientation:
 ---------------------------------------------------------------------
 Center     Atomic      Atomic             Coordinates (Angstroms)
 Number     Number       Type             X           Y           Z
 ---------------------------------------------------------------------
      1          8           0        0.055255   -0.609221    0.000000
      2          1           0       -0.884080   -0.868356    0.000000
      3          8           0        0.055255    0.717765    0.000000
 ---------------------------------------------------------------------

 SCF Done:  E(ROHF) =  -150.241809494     A.U. after   14 cycles

 The electronic state is 2-A".
 Alpha  occ. eigenvalues --  -20.66471 -20.66397  -1.53339  -1.14169  -0.75955
 Alpha  occ. eigenvalues --   -0.65851  -0.61083  -0.50125  -0.14370
 Alpha virt. eigenvalues --    0.08405   0.11153   0.13524   0.13538   0.17223
 Alpha virt. eigenvalues --    0.17860   0.18361   0.24239   0.29955   0.39359
 Alpha virt. eigenvalues --    0.47033   0.51896   0.53158   0.60903   0.69201

 Mulliken charges and spin densities:
               1          2
     1  O   -0.339498   0.094277
     2  H    0.398720   0.002779
     3  O   -0.059221   0.902944
 Sum of Mulliken charges =  -0.00000   1.00000

 Dipole moment (field-independent basis, Debye):
    X=             -1.7473    Y=             -0.8753    Z=              0.0000  Tot=              1.9543
 Quadrupole moment (field-independent basis, Debye-Ang):
   XX=             -9.7365   YY=            -10.9164   ZZ=            -10.8841
   XY=              1.7718   XZ=              0.0000   YZ=              0.0000

 Normal termination of Gaussian 16 at Sat Sep 30 20:48:15 2023.
