 Gaussian 16, Revision B.01,
 Gaussian 16:  ES64L-G16RevB.01 20-Dec-2017

 --------------------
 # b3lyp/gen opt freq
 --------------------

 ------------------
 HO2, B3LYP/pcseg-2
 ------------------
 Symbolic Z-matrix:
 Charge =  0 Multiplicity = 2

 SCF Done:  E(UB3LYP) =  -150.974885642     A.U. after   14 cycles
 SCF Done:  E(UB3LYP) =  -150.975827576     A.U. after   12 cycles
 SCF Done:  E(UB3LYP) =  -150.975984682     A.U. after   11 cycles
 SCF Done:  E(UB3LYP) =  -150.975992917     A.U. after    9 cycles
 Optimization completed.
    -- Stationary point found.
 Normal termination of Gaussian 16 at Tue Jun 14 20:20:16 2022.

 ------------------------------------------------------------------
 #N Geom=AllCheck Guess=TCheck SCRF=Check GenChk UB3LYP/ChkBas Freq
 ------------------------------------------------------------------

 Structure from the checkpoint file:  "/wrk/irikura/Gau-9943.chk"
 ------------------
 HO2, B3LYP/pcseg-2
 ------------------
 Charge =  0 Multiplicity = 2

                         Standard orientation:
 ---------------------------------------------------------------------
 Center     Atomic      Atomic             Coordinates (Angstroms)
 Number     Number       Type             X           Y           Z
 ---------------------------------------------------------------------
      1          8           0        0.055255   -0.609221   -0.000000
      2          1           0       -0.884080   -0.868356   -0.000000
      3          8           0        0.055255    0.717765    0.000000
 ---------------------------------------------------------------------

 SCF Done:  E(UB3LYP) =  -150.975992917     A.U. after    1 cycles

 The electronic state is 2-A".
 Alpha  occ. eigenvalues --  -19.25959 -19.22018  -1.21010  -0.88484  -0.57701
 Alpha  occ. eigenvalues --   -0.50837  -0.49399  -0.31730  -0.31130
 Alpha virt. eigenvalues --   -0.01079   0.07264   0.25382   0.28993   0.29378
 Alpha virt. eigenvalues --    0.31552   0.35787   0.38530   0.39102   0.48695
 Alpha virt. eigenvalues --    0.70539   0.75699   0.81108   1.08795   1.24630

  Beta  occ. eigenvalues --  -19.25051 -19.19867  -1.18316  -0.84311  -0.56205
  Beta  occ. eigenvalues --   -0.47892  -0.42941  -0.29261
  Beta virt. eigenvalues --   -0.13411  -0.00831   0.08997   0.25590   0.29538
  Beta virt. eigenvalues --    0.31168   0.32041   0.36063   0.39456   0.41302
  Beta virt. eigenvalues --    0.49173   0.71427   0.76157   0.81176   1.09025

 Mulliken charges and spin densities:
               1          2
     1  O   -0.064832   0.263972
     2  H    0.229639  -0.006360
     3  O   -0.164808   0.742388
 Sum of Mulliken charges =   0.00000   1.00000

 Dipole moment (field-independent basis, Debye):
    X=             -1.7499    Y=             -1.4651    Z=             -0.0000  Tot=              2.2822
 Quadrupole moment (field-independent basis, Debye-Ang):
   XX=            -10.0482   YY=            -11.1067   ZZ=            -11.0755
   XY=              1.6650   XZ=              0.0000   YZ=              0.0000

  Exact polarizability:   9.032   1.505  16.821   0.000   0.000   7.102
 Approx polarizability:  11.341   1.807  25.299   0.000  -0.000   8.647

                      1                      2                      3
                     A'                     A'                     A'
 Frequencies --   1163.2292              1432.2597              3606.9556
 Red. masses --     12.1790                 1.1422                 1.0686
 Frc consts  --      9.7094                 1.3804                 8.1914
 IR Inten    --     29.5722                37.9844                26.8448

 - Thermochemistry -
 -------------------
 Temperature   298.150 Kelvin.  Pressure   1.00000 Atm.
 Atom     1 has atomic number  8 and mass  15.99491

 Molecular mass:    32.99765 amu.
 Principal axes and moments of inertia in atomic units:
                           1         2         3
     Eigenvalues --     2.89704  53.44172  56.33876
           X            0.05993   0.99820   0.00000
           Y            0.99820  -0.05993   0.00000
           Z            0.00000   0.00000   1.00000
 This molecule is an asymmetric top.
 Rotational symmetry number  1.
 Rotational temperatures (Kelvin)     29.89738     1.62072     1.53738
 Rotational constants (GHZ):         622.96026    33.77027    32.03374
 Zero-point vibrational energy      37098.9 (Joules/Mol)
                                    8.86684 (Kcal/Mol)
 Vibrational temperatures:   1673.63  2060.70  5189.60
          (Kelvin)

 Zero-point correction=                           0.014130 (Hartree/Particle)
 Thermal correction to Energy=                    0.016989
 Thermal correction to Enthalpy=                  0.017933
 Thermal correction to Gibbs Free Energy=        -0.008044
 Sum of electronic and zero-point Energies=           -150.961863
 Sum of electronic and thermal Energies=              -150.959004
 Sum of electronic and thermal Enthalpies=            -150.958060
 Sum of electronic and thermal Free Energies=         -150.984037

                     E (Thermal)             CV                S
                      KCal/Mol        Cal/Mol-Kelvin    Cal/Mol-Kelvin
 Total                   10.661              6.287             54.673
 Electronic               0.000              0.000              1.377
 Translational            0.889              2.981             36.413
 Rotational               0.889              2.981             16.819
 Vibrational              8.883              0.325              0.064

 Optimization completed.
    -- Stationary point found.
 Normal termination of Gaussian 16 at Tue Jun 14 20:20:51 2022.
