 Gaussian 16, Revision B.01,

 ---------------------------------------
 # b3lyp/gen opt freq CPHF(Grid=OneStep)
 ---------------------------------------

 ------------------------------
 ethylene glycol, B3LYP/pcseg-2
 ------------------------------
 Symbolic Z-matrix:
 Charge =  0 Multiplicity = 1

 SCF Done:  E(RB3LYP) =  -230.357758187     A.U. after   10 cycles
 Optimization completed.
    -- Stationary point found.
 Normal termination of Gaussian 16 at Fri Sep 29 22:36:56 2023.

 ------------------------------------------------------------------
 #N Geom=AllCheck Guess=TCheck SCRF=Check GenChk RB3LYP/ChkBas Freq
 ------------------------------------------------------------------

 Structure from the checkpoint file:  "hoc2h4oh.chk"
 ------------------------------
 ethylene glycol, B3LYP/pcseg-2
 ------------------------------
 Charge =  0 Multiplicity = 1

 SCF Done:  E(RB3LYP) =  -230.357758187     A.U. after    1 cycles

  Exact polarizability:  34.639  -0.085  40.507   0.000   0.000  30.855
 Approx polarizability:  46.714  -0.539  48.649   0.000   0.000  41.579

                      1                      2                      3
                     AU                     BG                     AU
 Frequencies --    109.9445               192.1067               215.7031
 Red. masses --      3.3374                 1.1150                 1.0439
 Frc consts  --      0.0238                 0.0242                 0.0286
 IR Inten    --     47.1431                 0.0000               213.0543

                      4                      5                      6
                     BU                     AG                     AU
 Frequencies --    295.6404               477.5848               834.0192
 Red. masses --      3.3308                 6.8527                 1.0953
 Frc consts  --      0.1715                 0.9209                 0.4489
 IR Inten    --     20.3907                 0.0000                 1.2229

                      7                      8                      9
                     AG                     BU                     AG
 Frequencies --    984.1420              1057.6813              1072.7052
 Red. masses --      2.2184                 9.0498                 4.5977
 Frc consts  --      1.2659                 5.9649                 3.1171
 IR Inten    --      0.0000               227.3469                 0.0000

                     10                     11                     12
                     BG                     BU                     AU
 Frequencies --   1158.3818              1187.5838              1224.6625
 Red. masses --      1.5401                 1.0371                 1.1317
 Frc consts  --      1.2176                 0.8617                 1.0000
 IR Inten    --      0.0000                88.9029                 1.7330

                     13                     14                     15
                     AG                     BG                     BU
 Frequencies --   1281.6353              1306.0222              1408.8306
 Red. masses --      1.2534                 1.1034                 1.3321
 Frc consts  --      1.2131                 1.1089                 1.5577
 IR Inten    --      0.0000                 0.0000                 6.7079

                     16                     17                     18
                     AG                     AG                     BU
 Frequencies --   1477.1450              1520.9333              1532.7350
 Red. masses --      1.5777                 1.0806                 1.0880
 Frc consts  --      2.0283                 1.4728                 1.5059
 IR Inten    --      0.0000                 0.0000                 5.2594

                     19                     20                     21
                     AG                     BU                     BG
 Frequencies --   2998.1247              3004.3413              3022.1570
 Red. masses --      1.0543                 1.0546                 1.1060
 Frc consts  --      5.5838                 5.6086                 5.9518
 IR Inten    --      0.0000               104.7130                 0.0000

                     22                     23                     24
                     AU                     AG                     BU
 Frequencies --   3051.1243              3852.4612              3852.9283
 Red. masses --      1.1118                 1.0668                 1.0667
 Frc consts  --      6.0983                 9.3287                 9.3300
 IR Inten    --     86.3367                 0.0000                78.8131

 - Thermochemistry -
 -------------------
 Temperature   298.150 Kelvin.  Pressure   1.00000 Atm.
 Atom     1 has atomic number  6 and mass  12.00000

 Molecular mass:    62.03678 amu.
 Principal axes and moments of inertia in atomic units:
                           1         2         3
     Eigenvalues --    58.84673 452.07265 488.28848
           X           -0.13515   0.99083   0.00000
           Y            0.99083   0.13515   0.00000
           Z           -0.00000  -0.00000   1.00000
 This molecule is an asymmetric top.
 Rotational symmetry number  2.
 Rotational temperatures (Kelvin)      1.47186     0.19159     0.17738
 Rotational constants (GHZ):          30.66850     3.99215     3.69606
 Zero-point vibrational energy     222018.5 (Joules/Mol)
                                   53.06369 (Kcal/Mol)
 Warning -- explicit consideration of   5 degrees of freedom as
           vibrations may cause significant error
 Vibrational temperatures:    158.19   276.40   310.35   425.36   687.14
          (Kelvin)           1199.97  1415.96  1521.77  1543.38  1666.65
                             1708.67  1762.02  1843.99  1879.07  2026.99
                             2125.28  2188.28  2205.26  4313.63  4322.58
                             4348.21  4389.89  5542.83  5543.50

 Zero-point correction=                           0.084562 (Hartree/Particle)
 Thermal correction to Energy=                    0.090150
 Thermal correction to Enthalpy=                  0.091094
 Thermal correction to Gibbs Free Energy=         0.057223
 Sum of electronic and zero-point Energies=           -230.273196
 Sum of electronic and thermal Energies=              -230.267608
 Sum of electronic and thermal Enthalpies=            -230.266664
 Sum of electronic and thermal Free Energies=         -230.300535

                     E (Thermal)             CV                S
                      KCal/Mol        Cal/Mol-Kelvin    Cal/Mol-Kelvin
 Total                   56.570             17.425             71.288
 Electronic               0.000              0.000              0.000
 Translational            0.889              2.981             38.295
 Rotational               0.889              2.981             22.700
 Vibrational             54.792             11.464             10.292
 Vibration     1          0.606              1.941              3.270
 Vibration     2          0.634              1.851              2.207
 Vibration     3          0.645              1.817              1.995
 Vibration     4          0.690              1.682              1.441
 Vibration     5          0.834              1.300              0.717

 Optimization completed.
    -- Stationary point found.
 Normal termination of Gaussian 16 at Fri Sep 29 22:39:50 2023.
 Gaussian 16:  ES64L-G16RevB.01 20-Dec-2017

 ---------------------------------
 # rohf/gen geom=check guess=check
 ---------------------------------

 ---------------------------------
 ethylene glycol, ROHF/cc-pVTZ-F12
 ---------------------------------
 Structure from the checkpoint file:  "hoc2h4oh.chk"
 Charge =  0 Multiplicity = 1

                         Standard orientation:
 ---------------------------------------------------------------------
 Center     Atomic      Atomic             Coordinates (Angstroms)
 Number     Number       Type             X           Y           Z
 ---------------------------------------------------------------------
      1          6           0        0.435664    0.619989    0.000000
      2          6           0       -0.435664   -0.619989    0.000000
      3          8           0        0.435664   -1.746590    0.000000
      4          8           0       -0.435664    1.746590    0.000000
      5          1           0       -0.089717   -2.548947    0.000000
      6          1           0        0.089717    2.548947    0.000000
      7          1           0       -1.077239   -0.610944    0.886573
      8          1           0       -1.077239   -0.610944   -0.886573
      9          1           0        1.077239    0.610944    0.886573
     10          1           0        1.077239    0.610944   -0.886573
 ---------------------------------------------------------------------

 SCF Done:  E(ROHF) =  -229.042323951     A.U. after   10 cycles

 The electronic state is 1-AG.
 Alpha  occ. eigenvalues --  -20.55935 -20.55934 -11.27477 -11.27411  -1.36862
 Alpha  occ. eigenvalues --   -1.35577  -1.00039  -0.83263  -0.72244  -0.67010
 Alpha  occ. eigenvalues --   -0.66900  -0.58219  -0.58103  -0.54014  -0.48359
 Alpha  occ. eigenvalues --   -0.45839  -0.44431
 Alpha virt. eigenvalues --    0.04371   0.05264   0.06966   0.07104   0.09056
 Alpha virt. eigenvalues --    0.09088   0.10126   0.14976   0.15855   0.17138
 Alpha virt. eigenvalues --    0.17466   0.18827   0.20808   0.21483   0.22930

 Mulliken charges and spin densities:
               1          2
     1  C    0.157576   0.000000
     2  C    0.157576   0.000000
     3  O   -0.741710   0.000000
     4  O   -0.741710   0.000000
     5  H    0.408728   0.000000
     6  H    0.408728   0.000000
     7  H    0.087703   0.000000
     8  H    0.087703   0.000000
     9  H    0.087703   0.000000
    10  H    0.087703   0.000000
 Sum of Mulliken charges =  -0.00000   0.00000

 Dipole moment (field-independent basis, Debye):
    X=              0.0000    Y=              0.0000    Z=              0.0000  Tot=              0.0000
 Quadrupole moment (field-independent basis, Debye-Ang):
   XX=            -26.5511   YY=            -19.4356   ZZ=            -25.3579
   XY=              6.9060   XZ=              0.0000   YZ=              0.0000

 Normal termination of Gaussian 16 at Fri Sep 29 22:40:30 2023.
