 Gaussian 16, Revision B.01,
 Gaussian 16:  ES64L-G16RevB.01 20-Dec-2017

 --------------------
 # b3lyp/gen opt freq
 --------------------

 -------------------
 HOCl, B3LYP/pcseg-2
 -------------------
 Symbolic Z-matrix:
 Charge =  0 Multiplicity = 1

 SCF Done:  E(RB3LYP) =  -536.031903785     A.U. after   12 cycles
 SCF Done:  E(RB3LYP) =  -536.033203151     A.U. after   11 cycles
 SCF Done:  E(RB3LYP) =  -536.033234559     A.U. after    8 cycles
 SCF Done:  E(RB3LYP) =  -536.033235486     A.U. after    7 cycles
 Optimization completed.
    -- Stationary point found.
 Normal termination of Gaussian 16 at Wed Feb  2 17:42:27 2022.

 ------------------------------------------------------------------
 #N Geom=AllCheck Guess=TCheck SCRF=Check GenChk RB3LYP/ChkBas Freq
 ------------------------------------------------------------------

 Structure from the checkpoint file:  "/wrk/irikura/Gau-15188.chk"
 -------------------
 HOCl, B3LYP/pcseg-2
 -------------------
 Charge =  0 Multiplicity = 1

                         Standard orientation:
 ---------------------------------------------------------------------
 Center     Atomic      Atomic             Coordinates (Angstroms)
 Number     Number       Type             X           Y           Z
 ---------------------------------------------------------------------
      1          8           0        0.036173    1.106966    0.000000
      2          1           0       -0.904332    1.327388    0.000000
      3         17           0        0.036173   -0.599007    0.000000
 ---------------------------------------------------------------------

 SCF Done:  E(RB3LYP) =  -536.033235486     A.U. after    1 cycles

 The electronic state is 1-A'.
 Alpha  occ. eigenvalues -- -101.56042 -19.20265  -9.50103  -7.26691  -7.25215
 Alpha  occ. eigenvalues --   -7.25183  -1.07601  -0.80760  -0.54060  -0.45263
 Alpha  occ. eigenvalues --   -0.41840  -0.32718  -0.29435
 Alpha virt. eigenvalues --   -0.08778   0.01426   0.25353   0.27655   0.30069
 Alpha virt. eigenvalues --    0.30659   0.32852   0.33883   0.34751   0.49470
 Alpha virt. eigenvalues --    0.50569   0.53737   0.55513   0.60837   0.63195

 Mulliken charges:
               1
     1  O   -0.266287
     2  H    0.210588
     3  Cl   0.055699
 Sum of Mulliken charges =   0.00000

 Dipole moment (field-independent basis, Debye):
    X=             -1.6246    Y=              0.2288    Z=              0.0000  Tot=              1.6406
 Quadrupole moment (field-independent basis, Debye-Ang):
   XX=            -17.1412   YY=            -16.8083   ZZ=            -19.3467
   XY=             -2.5728   XZ=              0.0000   YZ=              0.0000

  Exact polarizability:  12.713  -1.100  24.634  -0.000   0.000  10.787
 Approx polarizability:  17.980  -1.031  39.513   0.000  -0.000  14.524

                      1                      2                      3
                     A'                     A'                     A'
 Frequencies --    739.1708              1259.4377              3777.1644
 Red. masses --     17.5136                 1.0718                 1.0680
 Frc consts  --      5.6379                 1.0017                 8.9774
 IR Inten    --      7.3618                40.7783                80.1608

 - Thermochemistry -
 -------------------
 Temperature   298.150 Kelvin.  Pressure   1.00000 Atm.
 Atom     1 has atomic number  8 and mass  15.99491

 Molecular mass:    51.97159 amu.
 Principal axes and moments of inertia in atomic units:
                           1         2         3
     Eigenvalues --     2.94104 121.07183 124.01287
           X           -0.03911   0.99923   0.00000
           Y            0.99923   0.03911   0.00000
           Z           -0.00000  -0.00000   1.00000
 This molecule is an asymmetric top.
 Rotational symmetry number  1.
 Rotational temperatures (Kelvin)     29.45007     0.71539     0.69843
 Rotational constants (GHZ):         613.63980    14.90637    14.55285
 Zero-point vibrational energy      34546.8 (Joules/Mol)
                                    8.25688 (Kcal/Mol)
 Vibrational temperatures:   1063.50  1812.05  5434.50
          (Kelvin)

 Zero-point correction=                           0.013158 (Hartree/Particle)
 Thermal correction to Energy=                    0.016102
 Thermal correction to Enthalpy=                  0.017046
 Thermal correction to Gibbs Free Energy=        -0.009795
 Sum of electronic and zero-point Energies=           -536.020077
 Sum of electronic and thermal Energies=              -536.017134
 Sum of electronic and thermal Enthalpies=            -536.016190
 Sum of electronic and thermal Free Energies=         -536.043031

                     E (Thermal)             CV                S
                      KCal/Mol        Cal/Mol-Kelvin    Cal/Mol-Kelvin
 Total                   10.104              6.887             56.492
 Electronic               0.000              0.000              0.000
 Translational            0.889              2.981             37.767
 Rotational               0.889              2.981             18.430
 Vibrational              8.327              0.925              0.295

 Optimization completed.
    -- Stationary point found.
 Normal termination of Gaussian 16 at Wed Feb  2 17:42:51 2022.
