 Gaussian 16, Revision B.01,

 ---------------------------------------
 # b3lyp/gen opt freq CPHF(Grid=OneStep)
 ---------------------------------------

 -------------------------------------
 chloric acid (HO-ClO2), B3LYP/pcseg-2
 -------------------------------------
 Symbolic Z-matrix:
 Charge =  0 Multiplicity = 1

 SCF Done:  E(RB3LYP) =  -686.373067493     A.U. after   15 cycles
 Optimization completed.
    -- Stationary point found.
 Normal termination of Gaussian 16 at Sat Sep 30 23:46:21 2023.

 ------------------------------------------------------------------
 #N Geom=AllCheck Guess=TCheck SCRF=Check GenChk RB3LYP/ChkBas Freq
 ------------------------------------------------------------------

 Structure from the checkpoint file:  "hoclo2.chk"
 -------------------------------------
 chloric acid (HO-ClO2), B3LYP/pcseg-2
 -------------------------------------
 Charge =  0 Multiplicity = 1

 SCF Done:  E(RB3LYP) =  -686.373067493     A.U. after    1 cycles

  Exact polarizability:  34.911   0.449  32.678   0.485   0.446  21.258
 Approx polarizability:  59.293   1.456  61.215  -1.914   1.090  32.272

                      1                      2                      3
                      A                      A                      A
 Frequencies --     91.3456               370.0958               411.3293
 Red. masses --      1.1173                13.6287                 6.3770
 Frc consts  --      0.0055                 1.0998                 0.6357
 IR Inten    --     83.4823                17.0172                 4.0533

                      4                      5                      6
                      A                      A                      A
 Frequencies --    532.6316               619.6265              1026.5720
 Red. masses --     14.0504                13.3766                 6.1263
 Frc consts  --      2.3485                 3.0259                 3.8039
 IR Inten    --     40.5743               204.6517                63.4859

                      7                      8                      9
                      A                      A                      A
 Frequencies --   1158.5651              1190.9716              3690.8459
 Red. masses --      2.2783                 2.7757                 1.0662
 Frc consts  --      1.8017                 2.3197                 8.5578
 IR Inten    --    148.2212               174.0221                91.6896

 - Thermochemistry -
 -------------------
 Temperature   298.150 Kelvin.  Pressure   1.00000 Atm.
 Atom     1 has atomic number 17 and mass  34.96885

 Molecular mass:    83.96142 amu.
 Principal axes and moments of inertia in atomic units:
                           1         2         3
     Eigenvalues --   193.95168 221.40032 362.21097
           X            0.99915   0.02857   0.02985
           Y           -0.02868   0.99958   0.00345
           Z           -0.02974  -0.00430   0.99955
 This molecule is an asymmetric top.
 Rotational symmetry number  1.
 Rotational temperatures (Kelvin)      0.44657     0.39121     0.23913
 Rotational constants (GHZ):           9.30511     8.15148     4.98257
 Zero-point vibrational energy      54382.1 (Joules/Mol)
                                   12.99764 (Kcal/Mol)
 Warning -- explicit consideration of   5 degrees of freedom as
           vibrations may cause significant error
 Vibrational temperatures:    131.43   532.49   591.81   766.34   891.50
          (Kelvin)           1477.01  1666.92  1713.54  5310.30

 Zero-point correction=                           0.020713 (Hartree/Particle)
 Thermal correction to Energy=                    0.025356
 Thermal correction to Enthalpy=                  0.026300
 Thermal correction to Gibbs Free Energy=        -0.007083
 Sum of electronic and zero-point Energies=           -686.352354
 Sum of electronic and thermal Energies=              -686.347712
 Sum of electronic and thermal Enthalpies=            -686.346767
 Sum of electronic and thermal Free Energies=         -686.380150

                     E (Thermal)             CV                S
                      KCal/Mol        Cal/Mol-Kelvin    Cal/Mol-Kelvin
 Total                   15.911             13.858             70.260
 Electronic               0.000              0.000              0.000
 Translational            0.889              2.981             39.197
 Rotational               0.889              2.981             24.257
 Vibrational             14.134              7.896              6.807
 Vibration     1          0.602              1.955              3.631
 Vibration     2          0.742              1.534              1.079
 Vibration     3          0.775              1.446              0.922
 Vibration     4          0.888              1.178              0.581
 Vibration     5          0.980              0.990              0.417

                           ! Non-Optimized Parameters !
 Normal termination of Gaussian 16 at Sat Sep 30 23:47:48 2023.
 Gaussian 16:  ES64L-G16RevB.01 20-Dec-2017

 ---------------------------------
 # rohf/gen geom=check guess=check
 ---------------------------------

 ----------------------------------------
 chloric acid (HO-ClO2), ROHF/cc-pVTZ-F12
 ----------------------------------------
 Structure from the checkpoint file:  "hoclo2.chk"
 Charge =  0 Multiplicity = 1

                         Standard orientation:
 ---------------------------------------------------------------------
 Center     Atomic      Atomic             Coordinates (Angstroms)
 Number     Number       Type             X           Y           Z
 ---------------------------------------------------------------------
      1         17           0       -0.168126    0.008965   -0.342312
      2          8           0        1.475002   -0.318734    0.055052
      3          8           0       -0.391418    1.321835    0.249750
      4          8           0       -0.926380   -1.039495    0.309526
      5          1           0        1.600510    0.138748    0.904688
 ---------------------------------------------------------------------

 SCF Done:  E(ROHF) =  -684.513976684     A.U. after   14 cycles

 The electronic state is 1-A.
 Alpha  occ. eigenvalues -- -105.17468 -20.66276 -20.62193 -20.62135 -10.86180
 Alpha  occ. eigenvalues --   -8.33016  -8.32939  -8.32745  -1.60518  -1.41712
 Alpha  occ. eigenvalues --   -1.40781  -1.01813  -0.79451  -0.77523  -0.73807
 Alpha  occ. eigenvalues --   -0.68859  -0.60798  -0.55361  -0.54579  -0.51814
 Alpha  occ. eigenvalues --   -0.48160
 Alpha virt. eigenvalues --    0.05247   0.06864   0.07396   0.08202   0.09776
 Alpha virt. eigenvalues --    0.13524   0.14676   0.14925   0.15921   0.16638
 Alpha virt. eigenvalues --    0.19257   0.20570   0.21152   0.21984   0.22416

 Mulliken charges and spin densities:
               1          2
     1  Cl   1.363706   0.000000
     2  O   -0.544197   0.000000
     3  O   -0.612637   0.000000
     4  O   -0.602625   0.000000
     5  H    0.395754   0.000000
 Sum of Mulliken charges =  -0.00000   0.00000

 Dipole moment (field-independent basis, Debye):
    X=              1.5389    Y=              0.3166    Z=             -0.5798  Tot=              1.6747
 Quadrupole moment (field-independent basis, Debye-Ang):
   XX=            -29.2340   YY=            -33.5487   ZZ=            -26.2876
   XY=              0.5974   XZ=              3.8592   YZ=              0.4278

 Normal termination of Gaussian 16 at Sat Sep 30 23:48:47 2023.
