 Gaussian 16, Revision B.01,

 ---------------------------------------
 # b3lyp/gen opt freq CPHF(Grid=OneStep)
 ---------------------------------------

 ----------------------------
 chlorous acid, B3LYP/pcseg-2
 ----------------------------
 Symbolic Z-matrix:
 Charge =  0 Multiplicity = 1

 SCF Done:  E(RB3LYP) =  -611.182101886     A.U. after   14 cycles
 SCF Done:  E(RB3LYP) =  -611.182101790     A.U. after    9 cycles
 SCF Done:  E(RB3LYP) =  -611.182102435     A.U. after    8 cycles
 Optimization completed.
    -- Stationary point found.
 Normal termination of Gaussian 16 at Wed Sep 27 17:27:05 2023.

 ------------------------------------------------------------------
 #N Geom=AllCheck Guess=TCheck SCRF=Check GenChk RB3LYP/ChkBas Freq
 ------------------------------------------------------------------

 Structure from the checkpoint file:  "hoclo.chk"
 ----------------------------
 chlorous acid, B3LYP/pcseg-2
 ----------------------------
 Charge =  0 Multiplicity = 1

 SCF Done:  E(RB3LYP) =  -611.182102435     A.U. after    1 cycles

  Exact polarizability:  37.287  -0.647  20.922   0.641   0.364  15.039
 Approx polarizability:  70.916  -4.709  32.871  -0.334   0.377  21.301

                      1                      2                      3
                      A                      A                      A
 Frequencies --    324.4334               403.9437               620.7623
 Red. masses --      4.8768                 1.3195                17.8827
 Frc consts  --      0.3024                 0.1269                 4.0601
 IR Inten    --      2.5904               119.0372               100.4414

                      4                      5                      6
                      A                      A                      A
 Frequencies --    970.6751              1185.2422              3733.4211
 Red. masses --     18.2533                 1.0837                 1.0677
 Frc consts  --     10.1330                 0.8970                 8.7687
 IR Inten    --     87.4816                44.4949                79.2106

 - Thermochemistry -
 -------------------
 Temperature   298.150 Kelvin.  Pressure   1.00000 Atm.
 Atom     1 has atomic number 17 and mass  34.96885

 Molecular mass:    67.96651 amu.
 Principal axes and moments of inertia in atomic units:
                           1         2         3
     Eigenvalues --    52.65016 218.30580 265.40168
           X            0.99957   0.02058   0.02103
           Y           -0.02144   0.99890   0.04169
           Z           -0.02015  -0.04213   0.99891
 This molecule is an asymmetric top.
 Rotational symmetry number  1.
 Rotational temperatures (Kelvin)      1.64508     0.39676     0.32635
 Rotational constants (GHZ):          34.27798     8.26703     6.80004
 Zero-point vibrational energy      43295.7 (Joules/Mol)
                                   10.34792 (Kcal/Mol)
 Warning -- explicit consideration of   3 degrees of freedom as
           vibrations may cause significant error
 Vibrational temperatures:    466.79   581.18   893.14  1396.58  1705.30
          (Kelvin)           5371.56

 Zero-point correction=                           0.016490 (Hartree/Particle)
 Thermal correction to Energy=                    0.020227
 Thermal correction to Enthalpy=                  0.021171
 Thermal correction to Gibbs Free Energy=        -0.009240
 Sum of electronic and zero-point Energies=           -611.165612
 Sum of electronic and thermal Energies=              -611.161875
 Sum of electronic and thermal Enthalpies=            -611.160931
 Sum of electronic and thermal Free Energies=         -611.191342

                     E (Thermal)             CV                S
                      KCal/Mol        Cal/Mol-Kelvin    Cal/Mol-Kelvin
 Total                   12.693             10.663             64.006
 Electronic               0.000              0.000              0.000
 Translational            0.889              2.981             38.567
 Rotational               0.889              2.981             22.638
 Vibrational             10.915              4.701              2.800
 Vibration     1          0.709              1.627              1.288
 Vibration     2          0.769              1.462              0.948
 Vibration     3          0.981              0.988              0.415

 Optimization completed.
    -- Stationary point found.
 Normal termination of Gaussian 16 at Wed Sep 27 17:27:42 2023.
 Gaussian 16:  ES64L-G16RevB.01 20-Dec-2017

 ---------------------------------
 # rohf/gen geom=check guess=check
 ---------------------------------

 -------------------------------
 chlorous acid, ROHF/cc-pVTZ-F12
 -------------------------------
 Structure from the checkpoint file:  "hoclo.chk"
 Charge =  0 Multiplicity = 1

                         Standard orientation:
 ---------------------------------------------------------------------
 Center     Atomic      Atomic             Coordinates (Angstroms)
 Number     Number       Type             X           Y           Z
 ---------------------------------------------------------------------
      1         17           0       -0.142941   -0.448645    0.018446
      2          8           0        1.389599    0.317084   -0.118822
      3          8           0       -1.281702    0.552512   -0.016135
      4          1           0        1.566822    0.670194    0.766076
 ---------------------------------------------------------------------

 SCF Done:  E(ROHF) =  -609.694376710     A.U. after   14 cycles

 The electronic state is 1-A.
 Alpha  occ. eigenvalues -- -105.02350 -20.66199 -20.57855 -10.73176  -8.19906
 Alpha  occ. eigenvalues --   -8.19723  -8.19636  -1.46861  -1.37399  -1.03828
 Alpha  occ. eigenvalues --   -0.75576  -0.68259  -0.66166  -0.61682  -0.55596
 Alpha  occ. eigenvalues --   -0.47594  -0.42190
 Alpha virt. eigenvalues --    0.04448   0.07051   0.08070   0.08899   0.11230
 Alpha virt. eigenvalues --    0.14240   0.14704   0.16597   0.16928   0.18884
 Alpha virt. eigenvalues --    0.19869   0.22311   0.24968   0.28694   0.35219

 Mulliken charges and spin densities:
               1          2
     1  Cl   0.766441   0.000000
     2  O   -0.520759   0.000000
     3  O   -0.631375   0.000000
     4  H    0.385693   0.000000
 Sum of Mulliken charges =  -0.00000   0.00000

 Dipole moment (field-independent basis, Debye):
    X=              2.2935    Y=             -1.3799    Z=              1.6061  Tot=              3.1215
 Quadrupole moment (field-independent basis, Debye-Ang):
   XX=            -25.6802   YY=            -22.8326   ZZ=            -22.3982
   XY=              3.1042   XZ=              2.7173   YZ=              1.3037

 Normal termination of Gaussian 16 at Wed Sep 27 17:27:51 2023.
