 Gaussian 16, Revision B.01,
 Gaussian 16:  ES64L-G16RevB.01 20-Dec-2017

 --------------------
 # b3lyp/gen opt freq
 --------------------

 -------------------------------------
 chloric acid (HO-ClO2), B3LYP/pcseg-2
 -------------------------------------
 Symbolic Z-matrix:
 Charge =  0 Multiplicity = 1

 SCF Done:  E(RB3LYP) =  -686.373015200     A.U. after   15 cycles
 SCF Done:  E(RB3LYP) =  -686.373017332     A.U. after   10 cycles
 SCF Done:  E(RB3LYP) =  -686.373063547     A.U. after   10 cycles
 SCF Done:  E(RB3LYP) =  -686.373065427     A.U. after    8 cycles
 SCF Done:  E(RB3LYP) =  -686.373066326     A.U. after    9 cycles
 SCF Done:  E(RB3LYP) =  -686.373066733     A.U. after    9 cycles
 SCF Done:  E(RB3LYP) =  -686.373067243     A.U. after    9 cycles
 SCF Done:  E(RB3LYP) =  -686.373067493     A.U. after    9 cycles
 Optimization completed.
    -- Stationary point found.
 Normal termination of Gaussian 16 at Thu Jun 16 12:42:44 2022.

 ------------------------------------------------------------------
 #N Geom=AllCheck Guess=TCheck SCRF=Check GenChk RB3LYP/ChkBas Freq
 ------------------------------------------------------------------

 Structure from the checkpoint file:  "/wrk/irikura/Gau-5771.chk"
 -------------------------------------
 chloric acid (HO-ClO2), B3LYP/pcseg-2
 -------------------------------------
 Charge =  0 Multiplicity = 1

                         Standard orientation:
 ---------------------------------------------------------------------
 Center     Atomic      Atomic             Coordinates (Angstroms)
 Number     Number       Type             X           Y           Z
 ---------------------------------------------------------------------
      1         17           0       -0.168126    0.008965   -0.342312
      2          8           0        1.475001   -0.318738    0.055052
      3          8           0       -0.391414    1.321836    0.249750
      4          8           0       -0.926382   -1.039493    0.309526
      5          1           0        1.600511    0.138744    0.904688
 ---------------------------------------------------------------------

 SCF Done:  E(RB3LYP) =  -686.373067493     A.U. after    1 cycles

 The electronic state is 1-A.
 Alpha  occ. eigenvalues -- -101.81339 -19.20479 -19.19155 -19.19035  -9.72145
 Alpha  occ. eigenvalues --   -7.48344  -7.48210  -7.47492  -1.25678  -1.08685
 Alpha  occ. eigenvalues --   -1.06507  -0.76867  -0.60888  -0.57625  -0.55034
 Alpha  occ. eigenvalues --   -0.49231  -0.41521  -0.39481  -0.37560  -0.35031
 Alpha  occ. eigenvalues --   -0.33636
 Alpha virt. eigenvalues --   -0.09086   0.00046   0.00432   0.01355   0.18751
 Alpha virt. eigenvalues --    0.23420   0.25651   0.26416   0.29760   0.31167
 Alpha virt. eigenvalues --    0.32090   0.32724   0.33722   0.37078   0.41061

 Mulliken charges:
               1
     1  Cl   0.921140
     2  O   -0.336853
     3  O   -0.412080
     4  O   -0.379103
     5  H    0.206896
 Sum of Mulliken charges =  -0.00000

 Dipole moment (field-independent basis, Debye):
    X=              1.0880    Y=              0.3615    Z=             -0.4649  Tot=              1.2371
 Quadrupole moment (field-independent basis, Debye-Ang):
   XX=            -29.7701   YY=            -33.3573   ZZ=            -26.5129
   XY=              0.7108   XZ=              3.5940   YZ=              0.4128

  Exact polarizability:  34.911   0.449  32.677   0.485   0.446  21.259
 Approx polarizability:  59.293   1.456  61.215  -1.914   1.090  32.272

                      1                      2                      3
                      A                      A                      A
 Frequencies --     91.3506               370.0956               411.3308
 Red. masses --      1.1173                13.6288                 6.3769
 Frc consts  --      0.0055                 1.0999                 0.6357
 IR Inten    --     83.4853                17.0166                 4.0539

                      4                      5                      6
                      A                      A                      A
 Frequencies --    532.6302               619.6266              1026.5718
 Red. masses --     14.0504                13.3770                 6.1261
 Frc consts  --      2.3485                 3.0260                 3.8038
 IR Inten    --     40.5730               204.6553                63.4840

                      7                      8                      9
                      A                      A                      A
 Frequencies --   1158.5680              1190.9742              3690.8406
 Red. masses --      2.2779                 2.7763                 1.0662
 Frc consts  --      1.8015                 2.3202                 8.5577
 IR Inten    --    148.1978               174.0327                91.6878

 - Thermochemistry -
 -------------------
 Temperature   298.150 Kelvin.  Pressure   1.00000 Atm.
 Atom     1 has atomic number 17 and mass  34.96885

 Molecular mass:    83.96142 amu.
 Principal axes and moments of inertia in atomic units:
                           1         2         3
     Eigenvalues --   193.95171 221.40025 362.21096
           X            0.99915   0.02857   0.02985
           Y           -0.02868   0.99958   0.00345
           Z           -0.02974  -0.00430   0.99955
 This molecule is an asymmetric top.
 Rotational symmetry number  1.
 Rotational temperatures (Kelvin)      0.44657     0.39121     0.23913
 Rotational constants (GHZ):           9.30511     8.15149     4.98257
 Zero-point vibrational energy      54382.2 (Joules/Mol)
                                   12.99765 (Kcal/Mol)
 Warning -- explicit consideration of   5 degrees of freedom as
           vibrations may cause significant error
 Vibrational temperatures:    131.43   532.49   591.81   766.34   891.50
          (Kelvin)           1477.01  1666.92  1713.55  5310.30

 Zero-point correction=                           0.020713 (Hartree/Particle)
 Thermal correction to Energy=                    0.025356
 Thermal correction to Enthalpy=                  0.026300
 Thermal correction to Gibbs Free Energy=        -0.007083
 Sum of electronic and zero-point Energies=           -686.352354
 Sum of electronic and thermal Energies=              -686.347712
 Sum of electronic and thermal Enthalpies=            -686.346767
 Sum of electronic and thermal Free Energies=         -686.380150

                     E (Thermal)             CV                S
                      KCal/Mol        Cal/Mol-Kelvin    Cal/Mol-Kelvin
 Total                   15.911             13.858             70.260
 Electronic               0.000              0.000              0.000
 Translational            0.889              2.981             39.197
 Rotational               0.889              2.981             24.257
 Vibrational             14.134              7.896              6.807
 Vibration     1          0.602              1.955              3.631
 Vibration     2          0.742              1.534              1.079
 Vibration     3          0.775              1.446              0.922
 Vibration     4          0.888              1.178              0.581
 Vibration     5          0.980              0.990              0.417

                           ! Non-Optimized Parameters !
 Normal termination of Gaussian 16 at Thu Jun 16 12:43:13 2022.
