 Gaussian 16, Revision B.01,
 Gaussian 16:  ES64L-G16RevB.01 20-Dec-2017

 --------------------
 # b3lyp/gen opt freq
 --------------------

 ----------------------------
 chlorous acid, B3LYP/pcseg-2
 ----------------------------
 Symbolic Z-matrix:
 Charge =  0 Multiplicity = 1

 SCF Done:  E(RB3LYP) =  -611.182039472     A.U. after   14 cycles
 SCF Done:  E(RB3LYP) =  -611.182067086     A.U. after   13 cycles
 SCF Done:  E(RB3LYP) =  -611.182036905     A.U. after   13 cycles
 SCF Done:  E(RB3LYP) =  -611.182101886     A.U. after   11 cycles
 Optimization completed.
    -- Stationary point found.
 Normal termination of Gaussian 16 at Wed Jun 15 17:41:20 2022.

 ------------------------------------------------------------------
 #N Geom=AllCheck Guess=TCheck SCRF=Check GenChk RB3LYP/ChkBas Freq
 ------------------------------------------------------------------

 Structure from the checkpoint file:  "/wrk/irikura/Gau-8844.chk"
 ----------------------------
 chlorous acid, B3LYP/pcseg-2
 ----------------------------
 Charge =  0 Multiplicity = 1

                         Standard orientation:
 ---------------------------------------------------------------------
 Center     Atomic      Atomic             Coordinates (Angstroms)
 Number     Number       Type             X           Y           Z
 ---------------------------------------------------------------------
      1         17           0       -0.143099   -0.448449    0.018365
      2          8           0        1.390635    0.317150   -0.118849
      3          8           0       -1.282373    0.552288   -0.016080
      4          1           0        1.566581    0.668119    0.767222
 ---------------------------------------------------------------------

 SCF Done:  E(RB3LYP) =  -611.182101886     A.U. after    1 cycles

 The electronic state is 1-A.
 Alpha  occ. eigenvalues -- -101.67906 -19.20946 -19.15463  -9.60769  -7.37153
 Alpha  occ. eigenvalues --   -7.36600  -7.35628  -1.13203  -1.04527  -0.78478
 Alpha  occ. eigenvalues --   -0.57101  -0.50361  -0.49048  -0.43369  -0.37430
 Alpha  occ. eigenvalues --   -0.33631  -0.26518
 Alpha virt. eigenvalues --   -0.09402  -0.01367   0.00295   0.21635   0.25325
 Alpha virt. eigenvalues --    0.26695   0.28967   0.30788   0.32017   0.33077
 Alpha virt. eigenvalues --    0.35316   0.37194   0.44144   0.45007   0.49889

 Mulliken charges:
               1
     1  Cl   0.554938
     2  O   -0.308209
     3  O   -0.453777
     4  H    0.207049
 Sum of Mulliken charges =   0.00000

 Dipole moment (field-independent basis, Debye):
    X=              1.9217    Y=             -1.3160    Z=              1.5920  Tot=              2.8212
 Quadrupole moment (field-independent basis, Debye-Ang):
   XX=            -25.8856   YY=            -22.8959   ZZ=            -22.6756
   XY=              2.7928   XZ=              2.6297   YZ=              1.2075

  Exact polarizability:  37.332  -0.648  20.915   0.640   0.363  15.045
 Approx polarizability:  71.087  -4.707  32.859  -0.347   0.373  21.312

                      1                      2                      3
                      A                      A                      A
 Frequencies --    324.0135               405.7171               619.4301
 Red. masses --      4.9337                 1.3155                17.9072
 Frc consts  --      0.3052                 0.1276                 4.0482
 IR Inten    --      2.4850               118.8757               100.3448

                      4                      5                      6
                      A                      A                      A
 Frequencies --    970.4493              1186.0756              3732.8085
 Red. masses --     18.2860                 1.0832                 1.0677
 Frc consts  --     10.1465                 0.8978                 8.7657
 IR Inten    --     87.5403                44.5493                79.1620

 - Thermochemistry -
 -------------------
 Temperature   298.150 Kelvin.  Pressure   1.00000 Atm.
 Atom     1 has atomic number 17 and mass  34.96885

 Molecular mass:    67.96651 amu.
 Principal axes and moments of inertia in atomic units:
                           1         2         3
     Eigenvalues --    52.61337 218.57707 265.62381
           X            0.99957   0.02047   0.02103
           Y           -0.02133   0.99890   0.04167
           Z           -0.02015  -0.04210   0.99891
 This molecule is an asymmetric top.
 Rotational symmetry number  1.
 Rotational temperatures (Kelvin)      1.64623     0.39626     0.32608
 Rotational constants (GHZ):          34.30195     8.25677     6.79435
 Zero-point vibrational energy      43295.8 (Joules/Mol)
                                   10.34795 (Kcal/Mol)
 Warning -- explicit consideration of   3 degrees of freedom as
           vibrations may cause significant error
 Vibrational temperatures:    466.18   583.74   891.22  1396.26  1706.50
          (Kelvin)           5370.68

 Zero-point correction=                           0.016491 (Hartree/Particle)
 Thermal correction to Energy=                    0.020226
 Thermal correction to Enthalpy=                  0.021171
 Thermal correction to Gibbs Free Energy=        -0.009240
 Sum of electronic and zero-point Energies=           -611.165611
 Sum of electronic and thermal Energies=              -611.161875
 Sum of electronic and thermal Enthalpies=            -611.160931
 Sum of electronic and thermal Free Energies=         -611.191342

                     E (Thermal)             CV                S
                      KCal/Mol        Cal/Mol-Kelvin    Cal/Mol-Kelvin
 Total                   12.692             10.663             64.005
 Electronic               0.000              0.000              0.000
 Translational            0.889              2.981             38.567
 Rotational               0.889              2.981             22.640
 Vibrational             10.915              4.701              2.798
 Vibration     1          0.709              1.627              1.290
 Vibration     2          0.771              1.458              0.942
 Vibration     3          0.979              0.991              0.417

                           ! Non-Optimized Parameters !
 Normal termination of Gaussian 16 at Wed Jun 15 17:41:34 2022.
