 Gaussian 16, Revision B.01,
 Gaussian 16:  ES64L-G16RevB.01 20-Dec-2017

 --------------------
 # b3lyp/gen opt freq
 --------------------

 --------------------------
 cyanic acid, B3LYP/pcseg-2
 --------------------------
 Symbolic Z-matrix:
 Charge =  0 Multiplicity = 1

 SCF Done:  E(RB3LYP) =  -168.712679045     A.U. after   12 cycles
 SCF Done:  E(RB3LYP) =  -168.712759704     A.U. after   11 cycles
 SCF Done:  E(RB3LYP) =  -168.712738401     A.U. after   10 cycles
 SCF Done:  E(RB3LYP) =  -168.712776245     A.U. after    8 cycles
 Optimization completed.
    -- Stationary point found.
 Normal termination of Gaussian 16 at Thu Jun 16 09:15:12 2022.

 ------------------------------------------------------------------
 #N Geom=AllCheck Guess=TCheck SCRF=Check GenChk RB3LYP/ChkBas Freq
 ------------------------------------------------------------------

 Structure from the checkpoint file:  "/wrk/irikura/Gau-25404.chk"
 --------------------------
 cyanic acid, B3LYP/pcseg-2
 --------------------------
 Charge =  0 Multiplicity = 1

                         Standard orientation:
 ---------------------------------------------------------------------
 Center     Atomic      Atomic             Coordinates (Angstroms)
 Number     Number       Type             X           Y           Z
 ---------------------------------------------------------------------
      1          7           0        0.047219    1.332916   -0.000000
      2          6           0       -0.000000    0.180997   -0.000000
      3          8           0       -0.132456   -1.108735    0.000000
      4          1           0        0.729112   -1.546517    0.000000
 ---------------------------------------------------------------------

 SCF Done:  E(RB3LYP) =  -168.712776245     A.U. after    1 cycles

 The electronic state is 1-A'.
 Alpha  occ. eigenvalues --  -19.24467 -14.32210 -10.27745  -1.15639  -0.92050
 Alpha  occ. eigenvalues --   -0.68601  -0.52142  -0.48113  -0.38240  -0.34695
 Alpha  occ. eigenvalues --   -0.32461
 Alpha virt. eigenvalues --   -0.04009   0.03174   0.05855   0.07477   0.14094
 Alpha virt. eigenvalues --    0.15693   0.18398   0.23964   0.25285   0.30128
 Alpha virt. eigenvalues --    0.33859   0.34266   0.40575   0.42759   0.44810

 Mulliken charges:
               1
     1  N   -0.219928
     2  C    0.266866
     3  O   -0.294557
     4  H    0.247619
 Sum of Mulliken charges =  -0.00000

 Dipole moment (field-independent basis, Debye):
    X=              1.4418    Y=             -3.7321    Z=              0.0000  Tot=              4.0009
 Quadrupole moment (field-independent basis, Debye-Ang):
   XX=            -15.4179   YY=            -18.7936   ZZ=            -16.9627
   XY=             -3.0372   XZ=              0.0000   YZ=             -0.0000

  Exact polarizability:  14.857  -0.345  31.050  -0.000  -0.000  13.814
 Approx polarizability:  20.255   0.237  53.061   0.000  -0.000  18.007

                      1                      2                      3
                     A'                     A"                     A'
 Frequencies --    457.9675               514.6705              1097.9678
 Red. masses --      5.5450                10.7657                13.3563
 Frc consts  --      0.6852                 1.6802                 9.4867
 IR Inten    --     14.0563                 3.1647                78.1156

                      4                      5                      6
                     A'                     A'                     A'
 Frequencies --   1242.1558              2373.7648              3761.4158
 Red. masses --      1.2039                12.1342                 1.0659
 Frc consts  --      1.0944                40.2842                 8.8855
 IR Inten    --     89.8281               134.8422               155.3270

 - Thermochemistry -
 -------------------
 Temperature   298.150 Kelvin.  Pressure   1.00000 Atm.
 Atom     1 has atomic number  7 and mass  14.00307

 Molecular mass:    43.00581 amu.
 Principal axes and moments of inertia in atomic units:
                           1         2         3
     Eigenvalues --     2.63877 169.21796 171.85673
           X            0.04549   0.99896   0.00000
           Y            0.99896  -0.04549   0.00000
           Z            0.00000   0.00000   1.00000
 This molecule is an asymmetric top.
 Rotational symmetry number  1.
 Rotational temperatures (Kelvin)     32.82356     0.51185     0.50399
 Rotational constants (GHZ):         683.93203    10.66519    10.50143
 Zero-point vibrational energy      56511.2 (Joules/Mol)
                                   13.50651 (Kcal/Mol)
 Warning -- explicit consideration of   2 degrees of freedom as
           vibrations may cause significant error
 Vibrational temperatures:    658.91   740.50  1579.73  1787.19  3415.32
          (Kelvin)           5411.84

 Zero-point correction=                           0.021524 (Hartree/Particle)
 Thermal correction to Energy=                    0.024867
 Thermal correction to Enthalpy=                  0.025811
 Thermal correction to Gibbs Free Energy=        -0.001592
 Sum of electronic and zero-point Energies=           -168.691252
 Sum of electronic and thermal Energies=              -168.687910
 Sum of electronic and thermal Enthalpies=            -168.686966
 Sum of electronic and thermal Free Energies=         -168.714368

                     E (Thermal)             CV                S
                      KCal/Mol        Cal/Mol-Kelvin    Cal/Mol-Kelvin
 Total                   15.604              8.986             57.674
 Electronic               0.000              0.000              0.000
 Translational            0.889              2.981             37.203
 Rotational               0.889              2.981             18.979
 Vibrational             13.827              3.024              1.492
 Vibration     1          0.816              1.343              0.772
 Vibration     2          0.870              1.217              0.622

 Optimization completed.
    -- Stationary point found.
 Normal termination of Gaussian 16 at Thu Jun 16 09:15:22 2022.
