 Gaussian 16, Revision B.01,
 Gaussian 16:  ES64L-G16RevB.01 20-Dec-2017

 --------------------
 # b3lyp/gen opt freq
 --------------------

 ----------------------------
 hydroxyformyl, B3LYP/pcseg-2
 ----------------------------
 Symbolic Z-matrix:
 Charge =  0 Multiplicity = 2

 SCF Done:  E(UB3LYP) =  -189.183557430     A.U. after   15 cycles
 SCF Done:  E(UB3LYP) =  -189.183559279     A.U. after    9 cycles
 Optimization completed.
    -- Stationary point found.
 Normal termination of Gaussian 16 at Sat Jun 18 12:24:59 2022.

 ------------------------------------------------------------------
 #N Geom=AllCheck Guess=TCheck SCRF=Check GenChk UB3LYP/ChkBas Freq
 ------------------------------------------------------------------

 Structure from the checkpoint file:  "/wrk/irikura/Gau-4917.chk"
 ----------------------------
 hydroxyformyl, B3LYP/pcseg-2
 ----------------------------
 Charge =  0 Multiplicity = 2

                         Standard orientation:
 ---------------------------------------------------------------------
 Center     Atomic      Atomic             Coordinates (Angstroms)
 Number     Number       Type             X           Y           Z
 ---------------------------------------------------------------------
      1          6           0        0.000000    0.408678    0.000000
      2          8           0       -0.939745   -0.546856    0.000000
      3          8           0        1.166034    0.256794   -0.000000
      4          1           0       -1.810307   -0.131573    0.000000
 ---------------------------------------------------------------------

 SCF Done:  E(UB3LYP) =  -189.183559279     A.U. after    1 cycles

 The electronic state is 2-A'.
 Alpha  occ. eigenvalues --  -19.22104 -19.17484 -10.32532  -1.15030  -1.08503
 Alpha  occ. eigenvalues --   -0.66469  -0.53817  -0.50394  -0.48363  -0.41746
 Alpha  occ. eigenvalues --   -0.37444  -0.24771
 Alpha virt. eigenvalues --   -0.01857  -0.00919   0.11493   0.13631   0.15517
 Alpha virt. eigenvalues --    0.19429   0.25311   0.27248   0.31609   0.35691
 Alpha virt. eigenvalues --    0.36028   0.41660   0.42938   0.45935   0.51720

  Beta  occ. eigenvalues --  -19.21564 -19.16702 -10.31435  -1.13603  -1.07001
  Beta  occ. eigenvalues --   -0.65388  -0.50614  -0.48488  -0.47545  -0.38040
  Beta  occ. eigenvalues --   -0.37033
  Beta virt. eigenvalues --   -0.11129  -0.00449   0.00313   0.11878   0.14717
  Beta virt. eigenvalues --    0.15953   0.20718   0.25857   0.28304   0.32125
  Beta virt. eigenvalues --    0.35775   0.36435   0.42333   0.43203   0.46589

 Mulliken charges and spin densities:
               1          2
     1  C    0.295600   0.717425
     2  O   -0.254210   0.080088
     3  O   -0.270545   0.207785
     4  H    0.229154  -0.005298
 Sum of Mulliken charges =  -0.00000   1.00000

 Dipole moment (field-independent basis, Debye):
    X=             -3.0313    Y=              0.3143    Z=              0.0000  Tot=              3.0476
 Quadrupole moment (field-independent basis, Debye-Ang):
   XX=            -14.1959   YY=            -18.2060   ZZ=            -16.4467
   XY=             -0.9732   XZ=              0.0000   YZ=              0.0000

  Exact polarizability:  28.171   1.210  17.923  -0.000   0.000  14.138
 Approx polarizability:  43.865   1.388  22.787  -0.000   0.000  18.252

                      1                      2                      3
                     A"                     A'                     A'
 Frequencies --    545.3015               622.6621              1082.2133
 Red. masses --      1.2131                 7.0863                 5.9616
 Frc consts  --      0.2125                 1.6187                 4.1137
 IR Inten    --     90.6784                 4.5742                79.5487

                      4                      5                      6
                     A'                     A'                     A'
 Frequencies --   1238.1612              1900.0523              3797.2432
 Red. masses --      1.3247                11.1253                 1.0664
 Frc consts  --      1.1965                23.6643                 9.0598
 IR Inten    --    243.6007               246.9322               125.9918

 - Thermochemistry -
 -------------------
 Temperature   298.150 Kelvin.  Pressure   1.00000 Atm.
 Atom     1 has atomic number  6 and mass  12.00000

 Molecular mass:    44.99765 amu.
 Principal axes and moments of inertia in atomic units:
                           1         2         3
     Eigenvalues --    10.71638 156.99246 167.70885
           X            0.93882  -0.34440   0.00000
           Y            0.34440   0.93882   0.00000
           Z           -0.00000   0.00000   1.00000
 This molecule is an asymmetric top.
 Rotational symmetry number  1.
 Rotational temperatures (Kelvin)      8.08238     0.55171     0.51645
 Rotational constants (GHZ):         168.40954    11.49572    10.76116
 Zero-point vibrational energy      54942.3 (Joules/Mol)
                                   13.13152 (Kcal/Mol)
 Warning -- explicit consideration of   1 degrees of freedom as
           vibrations may cause significant error
 Vibrational temperatures:    784.57   895.87  1557.06  1781.44  2733.75
          (Kelvin)           5463.39

 Zero-point correction=                           0.020926 (Hartree/Particle)
 Thermal correction to Energy=                    0.024142
 Thermal correction to Enthalpy=                  0.025086
 Thermal correction to Gibbs Free Energy=        -0.003450
 Sum of electronic and zero-point Energies=           -189.162633
 Sum of electronic and thermal Energies=              -189.159418
 Sum of electronic and thermal Enthalpies=            -189.158474
 Sum of electronic and thermal Free Energies=         -189.187009

                     E (Thermal)             CV                S
                      KCal/Mol        Cal/Mol-Kelvin    Cal/Mol-Kelvin
 Total                   15.149              8.590             60.059
 Electronic               0.000              0.000              1.377
 Translational            0.889              2.981             37.338
 Rotational               0.889              2.981             20.273
 Vibrational             13.372              2.628              1.071
 Vibration     1          0.900              1.150              0.554

 Optimization completed.
    -- Stationary point found.
 Normal termination of Gaussian 16 at Sat Jun 18 12:25:25 2022.
