 Gaussian 16, Revision B.01,

 ---------------------------------------
 # b3lyp/gen opt freq CPHF(Grid=OneStep)
 ---------------------------------------

 ----------------------------------
 bicarbonate radical, B3LYP/pcseg-2
 ----------------------------------
 Symbolic Z-matrix:
 Charge =  0 Multiplicity = 2

 SCF Done:  E(UB3LYP) =  -264.447344463     A.U. after   19 cycles
 Optimization completed.
    -- Stationary point found.
 Normal termination of Gaussian 16 at Sat Sep 30 14:31:58 2023.

 ------------------------------------------------------------------
 #N Geom=AllCheck Guess=TCheck SCRF=Check GenChk UB3LYP/ChkBas Freq
 ------------------------------------------------------------------

 Structure from the checkpoint file:  "hoco2.chk"
 ----------------------------------
 bicarbonate radical, B3LYP/pcseg-2
 ----------------------------------
 Charge =  0 Multiplicity = 2

 SCF Done:  E(UB3LYP) =  -264.447344463     A.U. after    1 cycles

  Exact polarizability:  39.820  -4.856  26.726   0.000   0.000  14.962
 Approx polarizability:  76.942 -11.202  37.408  -0.000  -0.000  19.519

                      1                      2                      3
                     A"                     A'                     A'
 Frequencies --    468.6385               512.4715               555.2570
 Red. masses --      1.1085                 5.7145                10.4934
 Frc consts  --      0.1434                 0.8842                 1.9061
 IR Inten    --    121.5629                12.8767                22.4668

                      4                      5                      6
                     A"                     A'                     A'
 Frequencies --    759.1161              1032.0673              1143.7491
 Red. masses --     12.6182                11.1322                 2.9110
 Frc consts  --      4.2841                 6.9863                 2.2436
 IR Inten    --     38.1885                32.8808                90.0975

                      7                      8                      9
                     A'                     A'                     A'
 Frequencies --   1266.9879              1568.8804              3755.9002
 Red. masses --      1.8567                12.6642                 1.0651
 Frc consts  --      1.7561                18.3656                 8.8527
 IR Inten    --    150.8486               412.2758               127.9772

 - Thermochemistry -
 -------------------
 Temperature   298.150 Kelvin.  Pressure   1.00000 Atm.
 Atom     1 has atomic number  6 and mass  12.00000

 Molecular mass:    60.99257 amu.
 Principal axes and moments of inertia in atomic units:
                           1         2         3
     Eigenvalues --   130.54331 160.29171 290.83502
           X            0.15101   0.98853   0.00000
           Y            0.98853  -0.15101   0.00000
           Z            0.00000  -0.00000   1.00000
 This molecule is an asymmetric top.
 Rotational symmetry number  1.
 Rotational temperatures (Kelvin)      0.66349     0.54035     0.29781
 Rotational constants (GHZ):          13.82485    11.25910     6.20538
 Zero-point vibrational energy      66171.8 (Joules/Mol)
                                   15.81545 (Kcal/Mol)
 Warning -- explicit consideration of   3 degrees of freedom as
           vibrations may cause significant error
 Vibrational temperatures:    674.27   737.33   798.89  1092.20  1484.91
          (Kelvin)           1645.60  1822.91  2257.27  5403.90

 Zero-point correction=                           0.025204 (Hartree/Particle)
 Thermal correction to Energy=                    0.028847
 Thermal correction to Enthalpy=                  0.029791
 Thermal correction to Gibbs Free Energy=        -0.001219
 Sum of electronic and zero-point Energies=           -264.422141
 Sum of electronic and thermal Energies=              -264.418498
 Sum of electronic and thermal Enthalpies=            -264.417553
 Sum of electronic and thermal Free Energies=         -264.448563

                     E (Thermal)             CV                S
                      KCal/Mol        Cal/Mol-Kelvin    Cal/Mol-Kelvin
 Total                   18.102             11.164             65.266
 Electronic               0.000              0.000              1.377
 Translational            0.889              2.981             38.244
 Rotational               0.889              2.981             23.324
 Vibrational             16.324              5.202              2.320
 Vibration     1          0.826              1.320              0.741
 Vibration     2          0.868              1.222              0.628
 Vibration     3          0.911              1.128              0.533

 Optimization completed.
    -- Stationary point found.
 Normal termination of Gaussian 16 at Sat Sep 30 14:33:43 2023.
 Gaussian 16:  ES64L-G16RevB.01 20-Dec-2017

 ---------------------------------
 # rohf/gen geom=check guess=check
 ---------------------------------

 -------------------------------------
 bicarbonate radical, ROHF/cc-pVTZ-F12
 -------------------------------------
 Structure from the checkpoint file:  "hoco2.chk"
 Charge =  0 Multiplicity = 2

                         Standard orientation:
 ---------------------------------------------------------------------
 Center     Atomic      Atomic             Coordinates (Angstroms)
 Number     Number       Type             X           Y           Z
 ---------------------------------------------------------------------
      1          6           0        0.000000    0.055228    0.000000
      2          8           0       -0.330232   -1.227708    0.000000
      3          8           0        1.169314    0.477937    0.000000
      4          8           0       -0.898361    0.929054    0.000000
      5          1           0        0.474233   -1.765632    0.000000
 ---------------------------------------------------------------------

 SCF Done:  E(ROHF) =  -263.122570107     A.U. after   23 cycles

 The electronic state is 2-A'.
 Alpha  occ. eigenvalues --  -20.69688 -20.65921 -20.55716 -11.46588  -1.54606
 Alpha  occ. eigenvalues --   -1.43611  -1.34872  -0.89316  -0.77003  -0.73152
 Alpha  occ. eigenvalues --   -0.72836  -0.63097  -0.59367  -0.49508  -0.48918
 Alpha  occ. eigenvalues --   -0.20904
 Alpha virt. eigenvalues --    0.04461   0.06405   0.06492   0.07510   0.13620
 Alpha virt. eigenvalues --    0.14220   0.16013   0.16560   0.17292   0.18318
 Alpha virt. eigenvalues --    0.19122   0.20988   0.21699   0.22901   0.23987

 Mulliken charges and spin densities:
               1          2
     1  C    0.987007   0.014463
     2  O   -0.613440   0.008473
     3  O   -0.626427   0.047102
     4  O   -0.203411   0.928277
     5  H    0.456271   0.001685
 Sum of Mulliken charges =  -0.00000   1.00000

 Dipole moment (field-independent basis, Debye):
    X=             -1.1319    Y=             -2.3457    Z=              0.0000  Tot=              2.6045
 Quadrupole moment (field-independent basis, Debye-Ang):
   XX=            -25.0857   YY=            -19.4111   ZZ=            -21.2607
   XY=             -3.7154   XZ=              0.0000   YZ=              0.0000

 Normal termination of Gaussian 16 at Sat Sep 30 14:35:04 2023.
