 Gaussian 16, Revision B.01,
 Gaussian 16:  ES64L-G16RevB.01 20-Dec-2017

 --------------------
 # b3lyp/gen opt freq
 --------------------

 ----------------------------------
 bicarbonate radical, B3LYP/pcseg-2
 ----------------------------------
 Symbolic Z-matrix:
 Charge =  0 Multiplicity = 2

 SCF Done:  E(UB3LYP) =  -264.447318135     A.U. after   19 cycles
 SCF Done:  E(UB3LYP) =  -264.447343379     A.U. after   11 cycles
 SCF Done:  E(UB3LYP) =  -264.447344463     A.U. after   11 cycles
 Optimization completed.
    -- Stationary point found.
 Normal termination of Gaussian 16 at Sat Jun 18 12:41:01 2022.

 ------------------------------------------------------------------
 #N Geom=AllCheck Guess=TCheck SCRF=Check GenChk UB3LYP/ChkBas Freq
 ------------------------------------------------------------------

 Structure from the checkpoint file:  "/wrk/irikura/Gau-15510.chk"
 ----------------------------------
 bicarbonate radical, B3LYP/pcseg-2
 ----------------------------------
 Charge =  0 Multiplicity = 2

                         Standard orientation:
 ---------------------------------------------------------------------
 Center     Atomic      Atomic             Coordinates (Angstroms)
 Number     Number       Type             X           Y           Z
 ---------------------------------------------------------------------
      1          6           0        0.000000    0.055228   -0.000000
      2          8           0       -0.330239   -1.227706    0.000000
      3          8           0        1.169316    0.477931   -0.000000
      4          8           0       -0.898356    0.929059   -0.000000
      5          1           0        0.474223   -1.765634    0.000000
 ---------------------------------------------------------------------

 SCF Done:  E(UB3LYP) =  -264.447344463     A.U. after    1 cycles

 The electronic state is 2-A'.
 Alpha  occ. eigenvalues --  -19.22404 -19.21164 -19.20044 -10.39009  -1.19897
 Alpha  occ. eigenvalues --   -1.10318  -1.06214  -0.68238  -0.57104  -0.54211
 Alpha  occ. eigenvalues --   -0.53197  -0.46888  -0.41606  -0.39549  -0.37076
 Alpha  occ. eigenvalues --   -0.36388
 Alpha virt. eigenvalues --   -0.01664   0.00160   0.08519   0.13366   0.14343
 Alpha virt. eigenvalues --    0.17648   0.21801   0.25683   0.30457   0.31404
 Alpha virt. eigenvalues --    0.34728   0.37077   0.38355   0.41041   0.41986

  Beta  occ. eigenvalues --  -19.22387 -19.19476 -19.18676 -10.39125  -1.18533
  Beta  occ. eigenvalues --   -1.08774  -1.02710  -0.67749  -0.54478  -0.52811
  Beta  occ. eigenvalues --   -0.52309  -0.45413  -0.39085  -0.34756  -0.34751
  Beta virt. eigenvalues --   -0.21346  -0.01546   0.00471   0.08810   0.13899
  Beta virt. eigenvalues --    0.14349   0.18046   0.21936   0.25844   0.30714
  Beta virt. eigenvalues --    0.31823   0.34799   0.37452   0.38681   0.41947

 Mulliken charges and spin densities:
               1          2
     1  C    0.694915  -0.075633
     2  O   -0.305689   0.010477
     3  O   -0.336585   0.475330
     4  O   -0.281081   0.592728
     5  H    0.228439  -0.002903
 Sum of Mulliken charges =   0.00000   1.00000

 Dipole moment (field-independent basis, Debye):
    X=              0.7972    Y=             -2.7401    Z=              0.0000  Tot=              2.8537
 Quadrupole moment (field-independent basis, Debye-Ang):
   XX=            -24.4305   YY=            -20.2945   ZZ=            -21.3838
   XY=             -2.5737   XZ=              0.0000   YZ=              0.0000

  Exact polarizability:  39.820  -4.856  26.726  -0.000  -0.000  14.962
 Approx polarizability:  76.942 -11.202  37.408   0.000  -0.000  19.519

                      1                      2                      3
                     A"                     A'                     A'
 Frequencies --    468.6307               512.4688               555.2550
 Red. masses --      1.1085                 5.7144                10.4930
 Frc consts  --      0.1434                 0.8842                 1.9061
 IR Inten    --    121.5622                12.8768                22.4676

                      4                      5                      6
                     A"                     A'                     A'
 Frequencies --    759.1186              1032.0694              1143.7424
 Red. masses --     12.6182                11.1318                 2.9108
 Frc consts  --      4.2842                 6.9861                 2.2434
 IR Inten    --     38.1871                32.8787                90.0974

                      7                      8                      9
                     A'                     A'                     A'
 Frequencies --   1266.9846              1568.8738              3755.9052
 Red. masses --      1.8568                12.6643                 1.0651
 Frc consts  --      1.7562                18.3657                 8.8527
 IR Inten    --    150.8422               412.2646               127.9845

 - Thermochemistry -
 -------------------
 Temperature   298.150 Kelvin.  Pressure   1.00000 Atm.
 Atom     1 has atomic number  6 and mass  12.00000

 Molecular mass:    60.99257 amu.
 Principal axes and moments of inertia in atomic units:
                           1         2         3
     Eigenvalues --   130.54329 160.29176 290.83504
           X            0.15102   0.98853   0.00000
           Y            0.98853  -0.15102   0.00000
           Z            0.00000   0.00000   1.00000
 This molecule is an asymmetric top.
 Rotational symmetry number  1.
 Rotational temperatures (Kelvin)      0.66349     0.54035     0.29781
 Rotational constants (GHZ):          13.82485    11.25910     6.20538
 Zero-point vibrational energy      66171.7 (Joules/Mol)
                                   15.81542 (Kcal/Mol)
 Warning -- explicit consideration of   3 degrees of freedom as
           vibrations may cause significant error
 Vibrational temperatures:    674.26   737.33   798.89  1092.20  1484.92
          (Kelvin)           1645.59  1822.91  2257.26  5403.91

 Zero-point correction=                           0.025203 (Hartree/Particle)
 Thermal correction to Energy=                    0.028847
 Thermal correction to Enthalpy=                  0.029791
 Thermal correction to Gibbs Free Energy=        -0.001219
 Sum of electronic and zero-point Energies=           -264.422141
 Sum of electronic and thermal Energies=              -264.418498
 Sum of electronic and thermal Enthalpies=            -264.417553
 Sum of electronic and thermal Free Energies=         -264.448564

                     E (Thermal)             CV                S
                      KCal/Mol        Cal/Mol-Kelvin    Cal/Mol-Kelvin
 Total                   18.102             11.164             65.266
 Electronic               0.000              0.000              1.377
 Translational            0.889              2.981             38.244
 Rotational               0.889              2.981             23.324
 Vibrational             16.324              5.202              2.320
 Vibration     1          0.826              1.320              0.741
 Vibration     2          0.868              1.222              0.628
 Vibration     3          0.911              1.128              0.533

 Optimization completed.
    -- Stationary point found.
 Normal termination of Gaussian 16 at Sat Jun 18 12:41:30 2022.
