 Gaussian 16, Revision B.01,

 ---------------------------------------
 # b3lyp/gen opt freq CPHF(Grid=OneStep)
 ---------------------------------------

 ------------------
 HOF, B3LYP/pcseg-2
 ------------------
 Symbolic Z-matrix:
 Charge =  0 Multiplicity = 1

 SCF Done:  E(RB3LYP) =  -175.617242168     A.U. after   12 cycles
 Optimization completed.
    -- Stationary point found.
 Normal termination of Gaussian 16 at Fri Sep 29 23:47:39 2023.

 ------------------------------------------------------------------
 #N Geom=AllCheck Guess=TCheck SCRF=Check GenChk RB3LYP/ChkBas Freq
 ------------------------------------------------------------------

 Structure from the checkpoint file:  "hof.chk"
 ------------------
 HOF, B3LYP/pcseg-2
 ------------------
 Charge =  0 Multiplicity = 1

 SCF Done:  E(RB3LYP) =  -175.617242168     A.U. after    1 cycles

  Exact polarizability:   8.300  -0.899  13.696   0.000   0.000   6.372
 Approx polarizability:  10.500  -0.984  21.055  -0.000  -0.000   7.286

                      1                      2                      3
                     A'                     A'                     A'
 Frequencies --    981.6457              1407.3414              3734.3053
 Red. masses --     16.9607                 1.0927                 1.0687
 Frc consts  --      9.6295                 1.2752                 8.7807
 IR Inten    --      9.1087                56.5361                45.5311

 - Thermochemistry -
 -------------------
 Temperature   298.150 Kelvin.  Pressure   1.00000 Atm.
 Atom     1 has atomic number  8 and mass  15.99491

 Molecular mass:    36.00114 amu.
 Principal axes and moments of inertia in atomic units:
                           1         2         3
     Eigenvalues --     3.06626  66.55718  69.62344
           X           -0.04871   0.99881   0.00000
           Y            0.99881   0.04871   0.00000
           Z           -0.00000   0.00000   1.00000
 This molecule is an asymmetric top.
 Rotational symmetry number  1.
 Rotational temperatures (Kelvin)     28.24740     1.30135     1.24403
 Rotational constants (GHZ):         588.58035    27.11565    25.92146
 Zero-point vibrational energy      36625.4 (Joules/Mol)
                                    8.75369 (Kcal/Mol)
 Vibrational temperatures:   1412.37  2024.85  5372.83
          (Kelvin)

 Zero-point correction=                           0.013950 (Hartree/Particle)
 Thermal correction to Energy=                    0.016829
 Thermal correction to Enthalpy=                  0.017773
 Thermal correction to Gibbs Free Energy=        -0.007929
 Sum of electronic and zero-point Energies=           -175.603292
 Sum of electronic and thermal Energies=              -175.600413
 Sum of electronic and thermal Enthalpies=            -175.599469
 Sum of electronic and thermal Free Energies=         -175.625171

                     E (Thermal)             CV                S
                      KCal/Mol        Cal/Mol-Kelvin    Cal/Mol-Kelvin
 Total                   10.560              6.463             54.094
 Electronic               0.000              0.000              0.000
 Translational            0.889              2.981             36.673
 Rotational               0.889              2.981             17.303
 Vibrational              8.783              0.501              0.118

 Optimization completed.
    -- Stationary point found.
 Normal termination of Gaussian 16 at Fri Sep 29 23:47:51 2023.
 Gaussian 16:  ES64L-G16RevB.01 20-Dec-2017

 ---------------------------------
 # rohf/gen geom=check guess=check
 ---------------------------------

 ---------------------
 HOF, ROHF/cc-pVTZ-F12
 ---------------------
 Structure from the checkpoint file:  "hof.chk"
 Charge =  0 Multiplicity = 1

                         Standard orientation:
 ---------------------------------------------------------------------
 Center     Atomic      Atomic             Coordinates (Angstroms)
 Number     Number       Type             X           Y           Z
 ---------------------------------------------------------------------
      1          8           0        0.053275    0.707131    0.000000
      2          9           0        0.053275   -0.723166    0.000000
      3          1           0       -0.905671    0.851450    0.000000
 ---------------------------------------------------------------------

 SCF Done:  E(ROHF) =  -174.818784230     A.U. after   12 cycles

 The electronic state is 1-A'.
 Alpha  occ. eigenvalues --  -26.34632 -20.69464  -1.64609  -1.31738  -0.77799
 Alpha  occ. eigenvalues --   -0.72421  -0.68678  -0.60875  -0.54656
 Alpha virt. eigenvalues --    0.08465   0.10181   0.13530   0.13828   0.19332
 Alpha virt. eigenvalues --    0.21049   0.21192   0.21722   0.25120   0.40688
 Alpha virt. eigenvalues --    0.46749   0.51067   0.54037   0.59512   0.67835

 Mulliken charges and spin densities:
               1          2
     1  O   -0.249588   0.000000
     2  F   -0.167428   0.000000
     3  H    0.417016   0.000000
 Sum of Mulliken charges =  -0.00000   0.00000

 Dipole moment (field-independent basis, Debye):
    X=             -1.8250    Y=              1.1566    Z=              0.0000  Tot=              2.1607
 Quadrupole moment (field-independent basis, Debye-Ang):
   XX=             -8.7921   YY=            -10.1405   ZZ=            -11.1074
   XY=             -1.7484   XZ=              0.0000   YZ=              0.0000

 Normal termination of Gaussian 16 at Fri Sep 29 23:47:54 2023.
