 Gaussian 16, Revision B.01,
 Gaussian 16:  ES64L-G16RevB.01 20-Dec-2017

 --------------------
 # b3lyp/gen opt freq
 --------------------

 ------------------
 HOF, B3LYP/pcseg-2
 ------------------
 Symbolic Z-matrix:
 Charge =  0 Multiplicity = 1

 SCF Done:  E(RB3LYP) =  -175.609320732     A.U. after   12 cycles
 SCF Done:  E(RB3LYP) =  -175.616808623     A.U. after   12 cycles
 SCF Done:  E(RB3LYP) =  -175.617232317     A.U. after   10 cycles
 SCF Done:  E(RB3LYP) =  -175.617242168     A.U. after    8 cycles
 Optimization completed.
    -- Stationary point found.
 Normal termination of Gaussian 16 at Thu Jun 23 09:27:02 2022.

 ------------------------------------------------------------------
 #N Geom=AllCheck Guess=TCheck SCRF=Check GenChk RB3LYP/ChkBas Freq
 ------------------------------------------------------------------

 Structure from the checkpoint file:  "/wrk/irikura/Gau-5496.chk"
 ------------------
 HOF, B3LYP/pcseg-2
 ------------------
 Charge =  0 Multiplicity = 1

                         Standard orientation:
 ---------------------------------------------------------------------
 Center     Atomic      Atomic             Coordinates (Angstroms)
 Number     Number       Type             X           Y           Z
 ---------------------------------------------------------------------
      1          8           0        0.053275    0.707131   -0.000000
      2          9           0        0.053275   -0.723166    0.000000
      3          1           0       -0.905671    0.851450    0.000000
 ---------------------------------------------------------------------

 SCF Done:  E(RB3LYP) =  -175.617242168     A.U. after    1 cycles

 The electronic state is 1-A'.
 Alpha  occ. eigenvalues --  -24.72905 -19.24444  -1.25835  -0.98770  -0.58143
 Alpha  occ. eigenvalues --   -0.51196  -0.48513  -0.39998  -0.33437
 Alpha virt. eigenvalues --   -0.07290   0.00092   0.26408   0.28415   0.31858
 Alpha virt. eigenvalues --    0.32232   0.44102   0.47608   0.48518   0.52507
 Alpha virt. eigenvalues --    0.76859   0.80319   0.87088   1.09243   1.33295

 Mulliken charges:
               1
     1  O   -0.087191
     2  F   -0.138645
     3  H    0.225836
 Sum of Mulliken charges =  -0.00000

 Dipole moment (field-independent basis, Debye):
    X=             -1.7649    Y=              0.9434    Z=              0.0000  Tot=              2.0012
 Quadrupole moment (field-independent basis, Debye-Ang):
   XX=             -9.1436   YY=            -10.2939   ZZ=            -11.3740
   XY=             -1.6721   XZ=             -0.0000   YZ=              0.0000

  Exact polarizability:   8.300  -0.899  13.696  -0.000   0.000   6.371
 Approx polarizability:  10.500  -0.984  21.055  -0.000  -0.000   7.286

                      1                      2                      3
                     A'                     A'                     A'
 Frequencies --    981.6472              1407.3393              3734.3052
 Red. masses --     16.9607                 1.0927                 1.0687
 Frc consts  --      9.6295                 1.2752                 8.7807
 IR Inten    --      9.1097                56.5365                45.5285

 - Thermochemistry -
 -------------------
 Temperature   298.150 Kelvin.  Pressure   1.00000 Atm.
 Atom     1 has atomic number  8 and mass  15.99491

 Molecular mass:    36.00114 amu.
 Principal axes and moments of inertia in atomic units:
                           1         2         3
     Eigenvalues --     3.06626  66.55716  69.62341
           X           -0.04871   0.99881   0.00000
           Y            0.99881   0.04871   0.00000
           Z           -0.00000  -0.00000   1.00000
 This molecule is an asymmetric top.
 Rotational symmetry number  1.
 Rotational temperatures (Kelvin)     28.24743     1.30135     1.24403
 Rotational constants (GHZ):         588.58096    27.11566    25.92147
 Zero-point vibrational energy      36625.4 (Joules/Mol)
                                    8.75368 (Kcal/Mol)
 Vibrational temperatures:   1412.37  2024.85  5372.83
          (Kelvin)

 Zero-point correction=                           0.013950 (Hartree/Particle)
 Thermal correction to Energy=                    0.016829
 Thermal correction to Enthalpy=                  0.017773
 Thermal correction to Gibbs Free Energy=        -0.007929
 Sum of electronic and zero-point Energies=           -175.603292
 Sum of electronic and thermal Energies=              -175.600413
 Sum of electronic and thermal Enthalpies=            -175.599469
 Sum of electronic and thermal Free Energies=         -175.625171

                     E (Thermal)             CV                S
                      KCal/Mol        Cal/Mol-Kelvin    Cal/Mol-Kelvin
 Total                   10.560              6.463             54.094
 Electronic               0.000              0.000              0.000
 Translational            0.889              2.981             36.673
 Rotational               0.889              2.981             17.303
 Vibrational              8.783              0.501              0.118

 Optimization completed.
    -- Stationary point found.
 Normal termination of Gaussian 16 at Thu Jun 23 09:27:16 2022.
