 Gaussian 16, Revision B.01,

 ---------------------------------------
 # b3lyp/gen opt freq CPHF(Grid=OneStep)
 ---------------------------------------

 -------------------------------
 isofulminic acid, B3LYP/pcseg-2
 -------------------------------
 Symbolic Z-matrix:
 Charge =  0 Multiplicity = 1

 SCF Done:  E(RB3LYP) =  -168.619271598     A.U. after   13 cycles
 SCF Done:  E(RB3LYP) =  -168.619271787     A.U. after    7 cycles
 Optimization completed.
    -- Stationary point found.
 Normal termination of Gaussian 16 at Sat Sep 30 21:32:45 2023.

 ------------------------------------------------------------------
 #N Geom=AllCheck Guess=TCheck SCRF=Check GenChk RB3LYP/ChkBas Freq
 ------------------------------------------------------------------

 Structure from the checkpoint file:  "honc.chk"
 -------------------------------
 isofulminic acid, B3LYP/pcseg-2
 -------------------------------
 Charge =  0 Multiplicity = 1

 SCF Done:  E(RB3LYP) =  -168.619271787     A.U. after    1 cycles

  Exact polarizability:  17.739  -3.644  33.754   0.000  -0.000  15.630
 Approx polarizability:  24.901  -6.410  54.709   0.000  -0.000  20.928

                      1                      2                      3
                     A'                     A"                     A'
 Frequencies --    263.0598               320.4610               980.0149
 Red. masses --      7.9315                 6.2922                13.7815
 Frc consts  --      0.3234                 0.3807                 7.7985
 IR Inten    --      4.8355                11.3354                54.2497

                      4                      5                      6
                     A'                     A'                     A'
 Frequencies --   1413.4277              2218.6920              3723.9402
 Red. masses --      1.1314                12.0228                 1.0674
 Frc consts  --      1.3317                34.8699                 8.7211
 IR Inten    --     59.1651                21.6173               110.0877

 - Thermochemistry -
 -------------------
 Temperature   298.150 Kelvin.  Pressure   1.00000 Atm.
 Atom     1 has atomic number  7 and mass  14.00307

 Molecular mass:    43.00581 amu.
 Principal axes and moments of inertia in atomic units:
                           1         2         3
     Eigenvalues --     2.92492 161.94163 164.86656
           X           -0.11884   0.99291   0.00000
           Y            0.99291   0.11884   0.00000
           Z            0.00000   0.00000   1.00000
 This molecule is an asymmetric top.
 Rotational symmetry number  1.
 Rotational temperatures (Kelvin)     29.61237     0.53485     0.52536
 Rotational constants (GHZ):         617.02165    11.14439    10.94668
 Zero-point vibrational energy      53351.0 (Joules/Mol)
                                   12.75120 (Kcal/Mol)
 Warning -- explicit consideration of   2 degrees of freedom as
           vibrations may cause significant error
 Vibrational temperatures:    378.48   461.07  1410.02  2033.61  3192.20
          (Kelvin)           5357.92

 Zero-point correction=                           0.020320 (Hartree/Particle)
 Thermal correction to Energy=                    0.024064
 Thermal correction to Enthalpy=                  0.025008
 Thermal correction to Gibbs Free Energy=        -0.003152
 Sum of electronic and zero-point Energies=           -168.598951
 Sum of electronic and thermal Energies=              -168.595208
 Sum of electronic and thermal Enthalpies=            -168.594264
 Sum of electronic and thermal Free Energies=         -168.622424

                     E (Thermal)             CV                S
                      KCal/Mol        Cal/Mol-Kelvin    Cal/Mol-Kelvin
 Total                   15.100              9.842             59.267
 Electronic               0.000              0.000              0.000
 Translational            0.889              2.981             37.203
 Rotational               0.889              2.981             18.996
 Vibrational             13.323              3.881              3.068
 Vibration     1          0.670              1.741              1.641
 Vibration     2          0.706              1.634              1.308

 Optimization completed.
    -- Stationary point found.
 Normal termination of Gaussian 16 at Sat Sep 30 21:33:12 2023.
 Gaussian 16:  ES64L-G16RevB.01 20-Dec-2017

 ---------------------------------
 # rohf/gen geom=check guess=check
 ---------------------------------

 ----------------------------------
 isofulminic acid, ROHF/cc-pVTZ-F12
 ----------------------------------
 Structure from the checkpoint file:  "honc.chk"
 Charge =  0 Multiplicity = 1

                         Standard orientation:
 ---------------------------------------------------------------------
 Center     Atomic      Atomic             Coordinates (Angstroms)
 Number     Number       Type             X           Y           Z
 ---------------------------------------------------------------------
      1          7           0       -0.000000    0.240581   -0.000000
      2          8           0        0.032344   -1.087963    0.000000
      3          6           0       -0.204866    1.391517   -0.000000
      4          1           0        0.970445   -1.329468    0.000000
 ---------------------------------------------------------------------

 SCF Done:  E(ROHF) =  -167.707256586     A.U. after   12 cycles

 The electronic state is 1-A'.
 Alpha  occ. eigenvalues --  -20.69271 -15.66394 -11.29314  -1.51611  -1.22844
 Alpha  occ. eigenvalues --   -0.86848  -0.73460  -0.68444  -0.50196  -0.49003
 Alpha  occ. eigenvalues --   -0.46865
 Alpha virt. eigenvalues --    0.03793   0.07530   0.07741   0.08876   0.10197
 Alpha virt. eigenvalues --    0.13351   0.14477   0.17967   0.18660   0.19822
 Alpha virt. eigenvalues --    0.20083   0.20339   0.20753   0.24655   0.30494

 Mulliken charges and spin densities:
               1          2
     1  N   -0.178132   0.000000
     2  O   -0.341471   0.000000
     3  C    0.089868   0.000000
     4  H    0.429735   0.000000
 Sum of Mulliken charges =  -0.00000   0.00000

 Dipole moment (field-independent basis, Debye):
    X=              1.9324    Y=             -2.6949    Z=              0.0000  Tot=              3.3161
 Quadrupole moment (field-independent basis, Debye-Ang):
   XX=            -14.7566   YY=            -19.6793   ZZ=            -17.3061
   XY=             -2.2810   XZ=              0.0000   YZ=              0.0000

 Normal termination of Gaussian 16 at Sat Sep 30 21:33:20 2023.
