 Gaussian 16, Revision B.01,
 Gaussian 16:  ES64L-G16RevB.01 20-Dec-2017

 --------------------
 # b3lyp/gen opt freq
 --------------------

 -------------------------------
 isofulminic acid, B3LYP/pcseg-2
 -------------------------------
 Symbolic Z-matrix:
 Charge =  0 Multiplicity = 1

 SCF Done:  E(RB3LYP) =  -168.619165455     A.U. after   13 cycles
 SCF Done:  E(RB3LYP) =  -168.619270402     A.U. after    9 cycles
 SCF Done:  E(RB3LYP) =  -168.619271598     A.U. after    8 cycles
 Optimization completed.
    -- Stationary point found.
 Normal termination of Gaussian 16 at Thu Jun 16 09:15:32 2022.

 ------------------------------------------------------------------
 #N Geom=AllCheck Guess=TCheck SCRF=Check GenChk RB3LYP/ChkBas Freq
 ------------------------------------------------------------------

 Structure from the checkpoint file:  "/wrk/irikura/Gau-26208.chk"
 -------------------------------
 isofulminic acid, B3LYP/pcseg-2
 -------------------------------
 Charge =  0 Multiplicity = 1

                         Standard orientation:
 ---------------------------------------------------------------------
 Center     Atomic      Atomic             Coordinates (Angstroms)
 Number     Number       Type             X           Y           Z
 ---------------------------------------------------------------------
      1          7           0        0.000000    0.240463    0.000000
      2          8           0        0.033271   -1.087839    0.000000
      3          6           0       -0.206355    1.391050   -0.000000
      4          1           0        0.971966   -1.326827    0.000000
 ---------------------------------------------------------------------

 SCF Done:  E(RB3LYP) =  -168.619271598     A.U. after    1 cycles

 The electronic state is 1-A'.
 Alpha  occ. eigenvalues --  -19.25842 -14.41862 -10.22634  -1.17904  -0.93024
 Alpha  occ. eigenvalues --   -0.68820  -0.54024  -0.49301  -0.36712  -0.32869
 Alpha  occ. eigenvalues --   -0.32764
 Alpha virt. eigenvalues --   -0.03559   0.00165   0.02239   0.08092   0.12277
 Alpha virt. eigenvalues --    0.18595   0.18912   0.19085   0.23905   0.27801
 Alpha virt. eigenvalues --    0.31162   0.36711   0.39372   0.41279   0.42012

 Mulliken charges:
               1
     1  N   -0.000231
     2  O   -0.211184
     3  C   -0.032032
     4  H    0.243448
 Sum of Mulliken charges =  -0.00000

 Dipole moment (field-independent basis, Debye):
    X=              1.9480    Y=             -2.9610    Z=              0.0000  Tot=              3.5443
 Quadrupole moment (field-independent basis, Debye-Ang):
   XX=            -14.8878   YY=            -20.1418   ZZ=            -17.3492
   XY=             -2.1243   XZ=              0.0000   YZ=             -0.0000

  Exact polarizability:  17.747  -3.657  33.732   0.000  -0.000  15.630
 Approx polarizability:  24.919  -6.440  54.668   0.000   0.000  20.927

                      1                      2                      3
                     A'                     A"                     A'
 Frequencies --    262.2701               319.4496               980.8890
 Red. masses --      7.9329                 6.2715                13.7894
 Frc consts  --      0.3215                 0.3771                 7.8169
 IR Inten    --      4.7967                11.4007                54.3341

                      4                      5                      6
                     A'                     A'                     A'
 Frequencies --   1414.5085              2219.4819              3724.6294
 Red. masses --      1.1313                12.0191                 1.0673
 Frc consts  --      1.3336                34.8840                 8.7241
 IR Inten    --     59.2024                21.5837               110.0249

 - Thermochemistry -
 -------------------
 Temperature   298.150 Kelvin.  Pressure   1.00000 Atm.
 Atom     1 has atomic number  7 and mass  14.00307

 Molecular mass:    43.00581 amu.
 Principal axes and moments of inertia in atomic units:
                           1         2         3
     Eigenvalues --     2.92986 161.87827 164.80814
           X           -0.11979   0.99280   0.00000
           Y            0.99280   0.11979   0.00000
           Z            0.00000   0.00000   1.00000
 This molecule is an asymmetric top.
 Rotational symmetry number  1.
 Rotational temperatures (Kelvin)     29.56245     0.53506     0.52554
 Rotational constants (GHZ):         615.98143    11.14876    10.95056
 Zero-point vibrational energy      53360.8 (Joules/Mol)
                                   12.75354 (Kcal/Mol)
 Warning -- explicit consideration of   2 degrees of freedom as
           vibrations may cause significant error
 Vibrational temperatures:    377.35   459.62  1411.28  2035.16  3193.34
          (Kelvin)           5358.91

 Zero-point correction=                           0.020324 (Hartree/Particle)
 Thermal correction to Energy=                    0.024069
 Thermal correction to Enthalpy=                  0.025014
 Thermal correction to Gibbs Free Energy=        -0.003151
 Sum of electronic and zero-point Energies=           -168.598948
 Sum of electronic and thermal Energies=              -168.595202
 Sum of electronic and thermal Enthalpies=            -168.594258
 Sum of electronic and thermal Free Energies=         -168.622423

                     E (Thermal)             CV                S
                      KCal/Mol        Cal/Mol-Kelvin    Cal/Mol-Kelvin
 Total                   15.104              9.844             59.278
 Electronic               0.000              0.000              0.000
 Translational            0.889              2.981             37.203
 Rotational               0.889              2.981             18.997
 Vibrational             13.326              3.883              3.078
 Vibration     1          0.670              1.742              1.647
 Vibration     2          0.705              1.636              1.313

 Optimization completed.
    -- Stationary point found.
 Normal termination of Gaussian 16 at Thu Jun 16 09:15:42 2022.
