 Gaussian 16, Revision B.01,
 Gaussian 16:  ES64L-G16RevB.01 20-Dec-2017

 --------------------
 # b3lyp/gen opt freq
 --------------------

 ---------------------------
 nitrous acid, B3LYP/pcseg-2
 ---------------------------
 Symbolic Z-matrix:
 Charge =  0 Multiplicity = 1

 SCF Done:  E(RB3LYP) =  -205.795273103     A.U. after   14 cycles
 SCF Done:  E(RB3LYP) =  -205.795295433     A.U. after    9 cycles
 SCF Done:  E(RB3LYP) =  -205.795302147     A.U. after    8 cycles
 SCF Done:  E(RB3LYP) =  -205.795305020     A.U. after    8 cycles
 SCF Done:  E(RB3LYP) =  -205.795306084     A.U. after    8 cycles
 Optimization completed.
    -- Stationary point found.
 Normal termination of Gaussian 16 at Fri Jun 17 17:57:37 2022.

 ------------------------------------------------------------------
 #N Geom=AllCheck Guess=TCheck SCRF=Check GenChk RB3LYP/ChkBas Freq
 ------------------------------------------------------------------

 Structure from the checkpoint file:  "/wrk/irikura/Gau-10945.chk"
 ---------------------------
 nitrous acid, B3LYP/pcseg-2
 ---------------------------
 Charge =  0 Multiplicity = 1

                         Standard orientation:
 ---------------------------------------------------------------------
 Center     Atomic      Atomic             Coordinates (Angstroms)
 Number     Number       Type             X           Y           Z
 ---------------------------------------------------------------------
      1          1           0        1.761879   -0.182814    0.000000
      2          8           0        0.890058   -0.602240    0.000000
      3          7           0        0.000000    0.518342    0.000000
      4          8           0       -1.110293    0.171542    0.000000
 ---------------------------------------------------------------------

 SCF Done:  E(RB3LYP) =  -205.795306084     A.U. after    1 cycles

 The electronic state is 1-A'.
 Alpha  occ. eigenvalues --  -19.22002 -19.20072 -14.51425  -1.24890  -1.06869
 Alpha  occ. eigenvalues --   -0.69892  -0.58340  -0.52426  -0.52425  -0.43495
 Alpha  occ. eigenvalues --   -0.36651  -0.29672
 Alpha virt. eigenvalues --   -0.09876   0.00157   0.08371   0.16053   0.23698
 Alpha virt. eigenvalues --    0.24556   0.26852   0.28682   0.33234   0.34335
 Alpha virt. eigenvalues --    0.36160   0.38855   0.41917   0.43926   0.49155

 Mulliken charges:
               1
     1  H    0.204125
     2  O   -0.210256
     3  N    0.170209
     4  O   -0.164078
 Sum of Mulliken charges =  -0.00000

 Dipole moment (field-independent basis, Debye):
    X=              1.9579    Y=              0.6249    Z=              0.0000  Tot=              2.0552
 Quadrupole moment (field-independent basis, Debye-Ang):
   XX=            -13.6743   YY=            -18.5423   ZZ=            -16.1795
   XY=              0.4946   XZ=              0.0000   YZ=              0.0000

  Exact polarizability:  28.213  -3.749  16.499  -0.000   0.000  11.565
 Approx polarizability:  49.234  -7.430  24.064  -0.000  -0.000  15.668

                      1                      2                      3
                     A"                     A'                     A'
 Frequencies --    583.3854               616.9850               818.2223
 Red. masses --      1.1627                11.4601                 5.6820
 Frc consts  --      0.2331                 2.5703                 2.2413
 IR Inten    --    104.5484               148.4410               139.1786

                      4                      5                      6
                     A'                     A'                     A'
 Frequencies --   1298.2862              1778.7273              3759.7522
 Red. masses --      1.2674                11.4884                 1.0669
 Frc consts  --      1.2587                21.4155                 8.8857
 IR Inten    --    183.4472               181.7345                77.6758

 - Thermochemistry -
 -------------------
 Temperature   298.150 Kelvin.  Pressure   1.00000 Atm.
 Atom     1 has atomic number  1 and mass   1.00783

 Molecular mass:    47.00073 amu.
 Principal axes and moments of inertia in atomic units:
                           1         2         3
     Eigenvalues --    19.05256 143.50137 162.55393
           X            0.92963   0.36849   0.00000
           Y           -0.36849   0.92963   0.00000
           Z           -0.00000   0.00000   1.00000
 This molecule is an asymmetric top.
 Rotational symmetry number  1.
 Rotational temperatures (Kelvin)      4.54605     0.60358     0.53283
 Rotational constants (GHZ):          94.72434    12.57647    11.10242
 Zero-point vibrational energy      52966.8 (Joules/Mol)
                                   12.65937 (Kcal/Mol)
 Warning -- explicit consideration of   2 degrees of freedom as
           vibrations may cause significant error
 Vibrational temperatures:    839.36   887.70  1177.24  1867.94  2559.19
          (Kelvin)           5409.44

 Zero-point correction=                           0.020174 (Hartree/Particle)
 Thermal correction to Energy=                    0.023413
 Thermal correction to Enthalpy=                  0.024357
 Thermal correction to Gibbs Free Energy=        -0.003826
 Sum of electronic and zero-point Energies=           -205.775132
 Sum of electronic and thermal Energies=              -205.771893
 Sum of electronic and thermal Enthalpies=            -205.770949
 Sum of electronic and thermal Free Energies=         -205.799132

                     E (Thermal)             CV                S
                      KCal/Mol        Cal/Mol-Kelvin    Cal/Mol-Kelvin
 Total                   14.692              8.822             59.316
 Electronic               0.000              0.000              0.000
 Translational            0.889              2.981             37.467
 Rotational               0.889              2.981             20.724
 Vibrational             12.914              2.861              1.125
 Vibration     1          0.940              1.067              0.479
 Vibration     2          0.977              0.996              0.421

 Optimization completed.
    -- Stationary point found.
 Normal termination of Gaussian 16 at Fri Jun 17 17:57:47 2022.
