 Gaussian 16, Revision B.01,
 Gaussian 16:  ES64L-G16RevB.01 20-Dec-2017

 --------------------
 # b3lyp/gen opt freq
 --------------------

 -------------------------------------
 chlorine hydroperoxide, B3LYP/pcseg-2
 -------------------------------------
 Symbolic Z-matrix:
 Charge =  0 Multiplicity = 1

 SCF Done:  E(RB3LYP) =  -611.197606739     A.U. after   14 cycles
 SCF Done:  E(RB3LYP) =  -611.197657966     A.U. after   11 cycles
 SCF Done:  E(RB3LYP) =  -611.197688342     A.U. after    9 cycles
 SCF Done:  E(RB3LYP) =  -611.197695669     A.U. after    9 cycles
 Optimization completed.
    -- Stationary point found.
 Normal termination of Gaussian 16 at Thu Jun 16 12:15:20 2022.

 ------------------------------------------------------------------
 #N Geom=AllCheck Guess=TCheck SCRF=Check GenChk RB3LYP/ChkBas Freq
 ------------------------------------------------------------------

 Structure from the checkpoint file:  "/wrk/irikura/Gau-29875.chk"
 -------------------------------------
 chlorine hydroperoxide, B3LYP/pcseg-2
 -------------------------------------
 Charge =  0 Multiplicity = 1

                         Standard orientation:
 ---------------------------------------------------------------------
 Center     Atomic      Atomic             Coordinates (Angstroms)
 Number     Number       Type             X           Y           Z
 ---------------------------------------------------------------------
      1          8           0       -1.525426   -0.314232   -0.122874
      2          8           0       -0.503238    0.647995    0.028011
      3         17           0        1.054643   -0.123106   -0.002069
      4          1           0       -1.699632   -0.577312    0.794068
 ---------------------------------------------------------------------

 SCF Done:  E(RB3LYP) =  -611.197695669     A.U. after    1 cycles

 The electronic state is 1-A.
 Alpha  occ. eigenvalues -- -101.56096 -19.26466 -19.22617  -9.50244  -7.26775
 Alpha  occ. eigenvalues --   -7.25392  -7.25325  -1.17900  -0.95729  -0.79550
 Alpha  occ. eigenvalues --   -0.57823  -0.51029  -0.48930  -0.39410  -0.34807
 Alpha  occ. eigenvalues --   -0.33939  -0.30043
 Alpha virt. eigenvalues --   -0.10853  -0.01454   0.02724   0.24899   0.26856
 Alpha virt. eigenvalues --    0.27322   0.29623   0.31681   0.32697   0.33368
 Alpha virt. eigenvalues --    0.35380   0.36797   0.40330   0.49902   0.52550

 Mulliken charges:
               1
     1  O   -0.147269
     2  O   -0.128290
     3  Cl   0.057652
     4  H    0.217907
 Sum of Mulliken charges =   0.00000

 Dipole moment (field-independent basis, Debye):
    X=             -0.4080    Y=             -0.8850    Z=              1.5376  Tot=              1.8204
 Quadrupole moment (field-independent basis, Debye-Ang):
   XX=            -21.5286   YY=            -23.9653   ZZ=            -23.0687
   XY=              0.8075   XZ=             -2.9538   YZ=             -1.0751

  Exact polarizability:  38.623  -0.694  18.516  -0.927  -0.501  15.062
 Approx polarizability:  61.744  -3.692  29.587  -0.478  -0.378  21.200

                      1                      2                      3
                      A                      A                      A
 Frequencies --    369.7426               411.6435               639.1839
 Red. masses --      5.3088                 1.2947                16.2999
 Frc consts  --      0.4276                 0.1293                 3.9236
 IR Inten    --     16.6340                85.1765                37.8991

                      4                      5                      6
                      A                      A                      A
 Frequencies --    893.5076              1410.2144              3704.8985
 Red. masses --     15.4615                 1.1038                 1.0686
 Frc consts  --      7.2727                 1.2934                 8.6420
 IR Inten    --     50.4277                42.2077                43.2570

 - Thermochemistry -
 -------------------
 Temperature   298.150 Kelvin.  Pressure   1.00000 Atm.
 Atom     1 has atomic number  8 and mass  15.99491

 Molecular mass:    67.96651 amu.
 Principal axes and moments of inertia in atomic units:
                           1         2         3
     Eigenvalues --    35.70874 299.38664 329.16622
           X            0.99975   0.01406  -0.01740
           Y           -0.01503   0.99823  -0.05748
           Z            0.01656   0.05772   0.99820
 This molecule is an asymmetric top.
 Rotational symmetry number  1.
 Rotational temperatures (Kelvin)      2.42557     0.28930     0.26313
 Rotational constants (GHZ):          50.54060     6.02813     5.48277
 Zero-point vibrational energy      44436.4 (Joules/Mol)
                                   10.62056 (Kcal/Mol)
 Warning -- explicit consideration of   2 degrees of freedom as
           vibrations may cause significant error
 Vibrational temperatures:    531.98   592.26   919.64  1285.56  2028.98
          (Kelvin)           5330.52

 Zero-point correction=                           0.016925 (Hartree/Particle)
 Thermal correction to Energy=                    0.020598
 Thermal correction to Enthalpy=                  0.021542
 Thermal correction to Gibbs Free Energy=        -0.008817
 Sum of electronic and zero-point Energies=           -611.180771
 Sum of electronic and thermal Energies=              -611.177098
 Sum of electronic and thermal Enthalpies=            -611.176154
 Sum of electronic and thermal Free Energies=         -611.206513

                     E (Thermal)             CV                S
                      KCal/Mol        Cal/Mol-Kelvin    Cal/Mol-Kelvin
 Total                   12.925             10.502             63.896
 Electronic               0.000              0.000              0.000
 Translational            0.889              2.981             38.567
 Rotational               0.889              2.981             22.780
 Vibrational             11.148              4.540              2.549
 Vibration     1          0.742              1.534              1.081
 Vibration     2          0.776              1.445              0.921

 Optimization completed.
    -- Stationary point found.
 Normal termination of Gaussian 16 at Thu Jun 16 12:15:34 2022.
