 Gaussian 16, Revision B.01,

 ---------------------------------------
 # b3lyp/gen opt freq CPHF(Grid=OneStep)
 ---------------------------------------

 -------------------------------------
 chlorine hydroperoxide, B3LYP/pcseg-2
 -------------------------------------
 Symbolic Z-matrix:
 Charge =  0 Multiplicity = 1

 SCF Done:  E(RB3LYP) =  -611.197695669     A.U. after   14 cycles
 Optimization completed.
    -- Stationary point found.
 Normal termination of Gaussian 16 at Fri Sep 29 01:18:55 2023.

 ------------------------------------------------------------------
 #N Geom=AllCheck Guess=TCheck SCRF=Check GenChk RB3LYP/ChkBas Freq
 ------------------------------------------------------------------

 Structure from the checkpoint file:  "hoocl.chk"
 -------------------------------------
 chlorine hydroperoxide, B3LYP/pcseg-2
 -------------------------------------
 Charge =  0 Multiplicity = 1

 SCF Done:  E(RB3LYP) =  -611.197695669     A.U. after    1 cycles

  Exact polarizability:  38.623  -0.694  18.516  -0.927  -0.501  15.062
 Approx polarizability:  61.744  -3.692  29.587  -0.478  -0.378  21.200

                      1                      2                      3
                      A                      A                      A
 Frequencies --    369.7472               411.6257               639.1850
 Red. masses --      5.3076                 1.2948                16.3002
 Frc consts  --      0.4275                 0.1293                 3.9237
 IR Inten    --     16.6428                85.1687                37.8948

                      4                      5                      6
                      A                      A                      A
 Frequencies --    893.5094              1410.2137              3704.8982
 Red. masses --     15.4614                 1.1038                 1.0686
 Frc consts  --      7.2727                 1.2934                 8.6420
 IR Inten    --     50.4330                42.2070                43.2563

 - Thermochemistry -
 -------------------
 Temperature   298.150 Kelvin.  Pressure   1.00000 Atm.
 Atom     1 has atomic number  8 and mass  15.99491

 Molecular mass:    67.96651 amu.
 Principal axes and moments of inertia in atomic units:
                           1         2         3
     Eigenvalues --    35.70874 299.38660 329.16618
           X            0.99975   0.01406  -0.01740
           Y           -0.01503   0.99823  -0.05748
           Z            0.01656   0.05772   0.99820
 This molecule is an asymmetric top.
 Rotational symmetry number  1.
 Rotational temperatures (Kelvin)      2.42557     0.28930     0.26313
 Rotational constants (GHZ):          50.54060     6.02813     5.48277
 Zero-point vibrational energy      44436.4 (Joules/Mol)
                                   10.62054 (Kcal/Mol)
 Warning -- explicit consideration of   2 degrees of freedom as
           vibrations may cause significant error
 Vibrational temperatures:    531.98   592.24   919.64  1285.56  2028.98
          (Kelvin)           5330.52

 Zero-point correction=                           0.016925 (Hartree/Particle)
 Thermal correction to Energy=                    0.020598
 Thermal correction to Enthalpy=                  0.021542
 Thermal correction to Gibbs Free Energy=        -0.008817
 Sum of electronic and zero-point Energies=           -611.180771
 Sum of electronic and thermal Energies=              -611.177098
 Sum of electronic and thermal Enthalpies=            -611.176154
 Sum of electronic and thermal Free Energies=         -611.206513

                     E (Thermal)             CV                S
                      KCal/Mol        Cal/Mol-Kelvin    Cal/Mol-Kelvin
 Total                   12.925             10.502             63.896
 Electronic               0.000              0.000              0.000
 Translational            0.889              2.981             38.567
 Rotational               0.889              2.981             22.780
 Vibrational             11.148              4.541              2.549
 Vibration     1          0.742              1.534              1.081
 Vibration     2          0.776              1.445              0.921

 Optimization completed.
    -- Stationary point found.
 Normal termination of Gaussian 16 at Fri Sep 29 01:19:32 2023.
 Gaussian 16:  ES64L-G16RevB.01 20-Dec-2017

 ---------------------------------
 # rohf/gen geom=check guess=check
 ---------------------------------

 ----------------------------------------
 chlorine hydroperoxide, ROHF/cc-pVTZ-F12
 ----------------------------------------
 Structure from the checkpoint file:  "hoocl.chk"
 Charge =  0 Multiplicity = 1

                         Standard orientation:
 ---------------------------------------------------------------------
 Center     Atomic      Atomic             Coordinates (Angstroms)
 Number     Number       Type             X           Y           Z
 ---------------------------------------------------------------------
      1          8           0       -1.525426   -0.314232   -0.122874
      2          8           0       -0.503238    0.647995    0.028011
      3         17           0        1.054643   -0.123106   -0.002069
      4          1           0       -1.699632   -0.577312    0.794068
 ---------------------------------------------------------------------

 SCF Done:  E(ROHF) =  -609.718368374     A.U. after   13 cycles

 The electronic state is 1-A.
 Alpha  occ. eigenvalues -- -104.89807 -20.70567 -20.66399 -10.61847  -8.08540
 Alpha  occ. eigenvalues --   -8.08296  -8.08277  -1.52620  -1.25930  -1.05290
 Alpha  occ. eigenvalues --   -0.76121  -0.67937  -0.66985  -0.57643  -0.51177
 Alpha  occ. eigenvalues --   -0.48317  -0.45807
 Alpha virt. eigenvalues --    0.04867   0.07143   0.09010   0.09646   0.10349
 Alpha virt. eigenvalues --    0.13410   0.14089   0.16032   0.17849   0.18967
 Alpha virt. eigenvalues --    0.21460   0.24868   0.26265   0.33153   0.34277

 Mulliken charges and spin densities:
               1          2
     1  O   -0.356938   0.000000
     2  O   -0.176104   0.000000
     3  Cl   0.124305   0.000000
     4  H    0.408737   0.000000
 Sum of Mulliken charges =  -0.00000   0.00000

 Dipole moment (field-independent basis, Debye):
    X=             -0.2675    Y=             -0.9308    Z=              1.5561  Tot=              1.8328
 Quadrupole moment (field-independent basis, Debye-Ang):
   XX=            -21.1916   YY=            -23.8951   ZZ=            -22.7749
   XY=              0.8129   XZ=             -3.0902   YZ=             -1.1515

 Normal termination of Gaussian 16 at Fri Sep 29 01:19:40 2023.
