 Gaussian 16, Revision B.01,

 ---------------------------------------
 # b3lyp/gen opt freq CPHF(Grid=OneStep)
 ---------------------------------------

 ---------------------------------
 peroxynitrous acid, B3LYP/pcseg-2
 ---------------------------------
 Symbolic Z-matrix:
 Charge =  0 Multiplicity = 1

 SCF Done:  E(RB3LYP) =  -280.961578068     A.U. after   14 cycles
 Optimization completed.
    -- Stationary point found.
 Normal termination of Gaussian 16 at Fri Sep 29 13:49:52 2023.

 ------------------------------------------------------------------
 #N Geom=AllCheck Guess=TCheck SCRF=Check GenChk RB3LYP/ChkBas Freq
 ------------------------------------------------------------------

 Structure from the checkpoint file:  "hoono.chk"
 ---------------------------------
 peroxynitrous acid, B3LYP/pcseg-2
 ---------------------------------
 Charge =  0 Multiplicity = 1

 SCF Done:  E(RB3LYP) =  -280.961578068     A.U. after    1 cycles

  Exact polarizability:  30.405   4.214  27.688   0.000   0.000  14.124
 Approx polarizability:  50.487   9.677  54.848  -0.000  -0.000  19.379

                      1                      2                      3
                     A"                     A'                     A"
 Frequencies --    363.9269               369.7264               509.6879
 Red. masses --      1.5492                 6.8114                 2.9645
 Frc consts  --      0.1209                 0.5486                 0.4537
 IR Inten    --     71.5854                 7.4315                32.8299

                      4                      5                      6
                     A'                     A'                     A'
 Frequencies --    666.4204               840.2987               963.2576
 Red. masses --     13.5767                13.2757                 8.6699
 Frc consts  --      3.5526                 5.5230                 4.7397
 IR Inten    --    109.6504                66.6384                13.1559

                      7                      8                      9
                     A'                     A'                     A'
 Frequencies --   1443.2134              1659.9053              3512.9244
 Red. masses --      1.2354                 9.9092                 1.0643
 Frc consts  --      1.5161                16.0863                 7.7382
 IR Inten    --     72.3208               207.1392                41.2541

 - Thermochemistry -
 -------------------
 Temperature   298.150 Kelvin.  Pressure   1.00000 Atm.
 Atom     1 has atomic number  8 and mass  15.99491

 Molecular mass:    62.99564 amu.
 Principal axes and moments of inertia in atomic units:
                           1         2         3
     Eigenvalues --    82.74070 227.12476 309.86546
           X            0.80130  -0.59826   0.00000
           Y            0.59826   0.80130   0.00000
           Z            0.00000   0.00000   1.00000
 This molecule is an asymmetric top.
 Rotational symmetry number  1.
 Rotational temperatures (Kelvin)      1.04681     0.38135     0.27952
 Rotational constants (GHZ):          21.81201     7.94603     5.82427
 Zero-point vibrational energy      61783.3 (Joules/Mol)
                                   14.76656 (Kcal/Mol)
 Warning -- explicit consideration of   3 degrees of freedom as
           vibrations may cause significant error
 Vibrational temperatures:    523.61   531.95   733.33   958.83  1209.00
          (Kelvin)           1385.91  2076.46  2388.23  5054.31

 Zero-point correction=                           0.023532 (Hartree/Particle)
 Thermal correction to Energy=                    0.027513
 Thermal correction to Enthalpy=                  0.028458
 Thermal correction to Gibbs Free Energy=        -0.002472
 Sum of electronic and zero-point Energies=           -280.938046
 Sum of electronic and thermal Energies=              -280.934065
 Sum of electronic and thermal Enthalpies=            -280.933121
 Sum of electronic and thermal Free Energies=         -280.964050

                     E (Thermal)             CV                S
                      KCal/Mol        Cal/Mol-Kelvin    Cal/Mol-Kelvin
 Total                   17.265             12.305             65.096
 Electronic               0.000              0.000              0.000
 Translational            0.889              2.981             38.341
 Rotational               0.889              2.981             23.281
 Vibrational             15.487              6.344              3.475
 Vibration     1          0.737              1.547              1.105
 Vibration     2          0.742              1.534              1.081
 Vibration     3          0.865              1.229              0.634

 Optimization completed.
    -- Stationary point found.
 Normal termination of Gaussian 16 at Fri Sep 29 13:50:56 2023.
 Gaussian 16:  ES64L-G16RevB.01 20-Dec-2017

 ---------------------------------
 # rohf/gen geom=check guess=check
 ---------------------------------

 ------------------------------------
 peroxynitrous acid, ROHF/cc-pVTZ-F12
 ------------------------------------
 Structure from the checkpoint file:  "hoono.chk"
 Charge =  0 Multiplicity = 1

                         Standard orientation:
 ---------------------------------------------------------------------
 Center     Atomic      Atomic             Coordinates (Angstroms)
 Number     Number       Type             X           Y           Z
 ---------------------------------------------------------------------
      1          8           0       -0.603144   -1.167815    0.000000
      2          7           0       -0.992753   -0.051720    0.000000
      3          8           0       -0.000000    0.906366    0.000000
      4          8           0        1.327571    0.379949    0.000000
      5          1           0        1.153859   -0.585958    0.000000
 ---------------------------------------------------------------------

 SCF Done:  E(ROHF) =  -279.525599508     A.U. after   14 cycles

 The electronic state is 1-A'.
 Alpha  occ. eigenvalues --  -20.71320 -20.68368 -20.66624 -15.82138  -1.64804
 Alpha  occ. eigenvalues --   -1.50704  -1.29336  -0.95804  -0.83389  -0.76080
 Alpha  occ. eigenvalues --   -0.74092  -0.64062  -0.62146  -0.61763  -0.50036
 Alpha  occ. eigenvalues --   -0.49710
 Alpha virt. eigenvalues --    0.06510   0.06517   0.09057   0.09571   0.10538
 Alpha virt. eigenvalues --    0.11672   0.14290   0.16254   0.16958   0.17240
 Alpha virt. eigenvalues --    0.19995   0.20824   0.22147   0.22498   0.25050

 Mulliken charges and spin densities:
               1          2
     1  O   -0.290745  -0.000000
     2  N    0.322761  -0.000000
     3  O   -0.077234  -0.000000
     4  O   -0.375054  -0.000000
     5  H    0.420272  -0.000000
 Sum of Mulliken charges =  -0.00000  -0.00000

 Dipole moment (field-independent basis, Debye):
    X=             -0.0437    Y=             -1.1507    Z=              0.0000  Tot=              1.1515
 Quadrupole moment (field-independent basis, Debye-Ang):
   XX=            -22.6203   YY=            -23.2655   ZZ=            -21.3367
   XY=             -2.4403   XZ=              0.0000   YZ=              0.0000

 Normal termination of Gaussian 16 at Fri Sep 29 13:51:45 2023.
