 Gaussian 16, Revision B.01,

 ---------------------------------------
 # b3lyp/gen opt freq CPHF(Grid=OneStep)
 ---------------------------------------

 --------------------------------
 peroxynitric acid, B3LYP/pcseg-2
 --------------------------------
 Symbolic Z-matrix:
 Charge =  0 Multiplicity = 1

 SCF Done:  E(RB3LYP) =  -356.173218655     A.U. after   15 cycles
 SCF Done:  E(RB3LYP) =  -356.173218413     A.U. after    9 cycles
 SCF Done:  E(RB3LYP) =  -356.173218965     A.U. after    9 cycles
 Optimization completed.
    -- Stationary point found.
 Normal termination of Gaussian 16 at Sat Sep 30 19:43:25 2023.

 ------------------------------------------------------------------
 #N Geom=AllCheck Guess=TCheck SCRF=Check GenChk RB3LYP/ChkBas Freq
 ------------------------------------------------------------------

 Structure from the checkpoint file:  "hoono2.chk"
 --------------------------------
 peroxynitric acid, B3LYP/pcseg-2
 --------------------------------
 Charge =  0 Multiplicity = 1

 SCF Done:  E(RB3LYP) =  -356.173218965     A.U. after    1 cycles

  Exact polarizability:  42.471  -2.957  31.737  -0.803   0.354  17.627
 Approx polarizability:  67.614 -10.753  61.833  -0.462   0.316  24.778

                      1                      2                      3
                      A                      A                      A
 Frequencies --    145.7578               300.7817               366.2816
 Red. masses --      5.2974                 2.7192                 1.8382
 Frc consts  --      0.0663                 0.1449                 0.1453
 IR Inten    --     10.9317                15.6900                70.5752

                      4                      5                      6
                      A                      A                      A
 Frequencies --    455.1430               655.8954               742.9332
 Red. masses --     14.1843                12.4765                11.1413
 Frc consts  --      1.7312                 3.1624                 3.6231
 IR Inten    --     22.6381                10.8701                10.7943

                      7                      8                      9
                      A                      A                      A
 Frequencies --    813.9027               995.0597              1350.4620
 Red. masses --     14.9665                14.7972                14.6214
 Frc consts  --      5.8414                 8.6323                15.7110
 IR Inten    --    125.7560                42.7502               238.7744

                     10                     11                     12
                      A                      A                      A
 Frequencies --   1431.4400              1790.0768              3711.6081
 Red. masses --      1.1174                14.3860                 1.0687
 Frc consts  --      1.3490                27.1603                 8.6742
 IR Inten    --     59.0300               437.2716                54.0184

 - Thermochemistry -
 -------------------
 Temperature   298.150 Kelvin.  Pressure   1.00000 Atm.
 Atom     1 has atomic number  7 and mass  14.00307

 Molecular mass:    78.99056 amu.
 Principal axes and moments of inertia in atomic units:
                           1         2         3
     Eigenvalues --   150.04002 392.19030 535.88264
           X            0.99986  -0.00910  -0.01406
           Y            0.00918   0.99994   0.00627
           Z            0.01400  -0.00640   0.99988
 This molecule is an asymmetric top.
 Rotational symmetry number  1.
 Rotational temperatures (Kelvin)      0.57727     0.22085     0.16163
 Rotational constants (GHZ):          12.02840     4.60170     3.36779
 Zero-point vibrational energy      76317.8 (Joules/Mol)
                                   18.24040 (Kcal/Mol)
 Warning -- explicit consideration of   4 degrees of freedom as
           vibrations may cause significant error
 Vibrational temperatures:    209.71   432.76   527.00   654.85   943.69
          (Kelvin)           1068.92  1171.02  1431.67  1943.01  2059.52
                             2575.52  5340.18

 Zero-point correction=                           0.029068 (Hartree/Particle)
 Thermal correction to Energy=                    0.033931
 Thermal correction to Enthalpy=                  0.034875
 Thermal correction to Gibbs Free Energy=         0.001167
 Sum of electronic and zero-point Energies=           -356.144151
 Sum of electronic and thermal Energies=              -356.139288
 Sum of electronic and thermal Enthalpies=            -356.138344
 Sum of electronic and thermal Free Energies=         -356.172052

                     E (Thermal)             CV                S
                      KCal/Mol        Cal/Mol-Kelvin    Cal/Mol-Kelvin
 Total                   21.292             15.355             70.944
 Electronic               0.000              0.000              0.000
 Translational            0.889              2.981             39.015
 Rotational               0.889              2.981             24.959
 Vibrational             19.514              9.393              6.970
 Vibration     1          0.617              1.907              2.727
 Vibration     2          0.693              1.672              1.413
 Vibration     3          0.739              1.542              1.095
 Vibration     4          0.813              1.350              0.780

 Optimization completed.
    -- Stationary point found.
 Normal termination of Gaussian 16 at Sat Sep 30 19:45:50 2023.
 Gaussian 16:  ES64L-G16RevB.01 20-Dec-2017

 ---------------------------------
 # rohf/gen geom=check guess=check
 ---------------------------------

 -----------------------------------
 peroxynitric acid, ROHF/cc-pVTZ-F12
 -----------------------------------
 Structure from the checkpoint file:  "hoono2.chk"
 Charge =  0 Multiplicity = 1

                         Standard orientation:
 ---------------------------------------------------------------------
 Center     Atomic      Atomic             Coordinates (Angstroms)
 Number     Number       Type             X           Y           Z
 ---------------------------------------------------------------------
      1          7           0        0.632217    0.078444    0.000933
      2          8           0       -0.623919   -0.776705    0.047223
      3          8           0       -1.750001    0.032280   -0.134468
      4          8           0        1.594721   -0.618159   -0.011936
      5          8           0        0.472120    1.254367    0.002593
      6          1           0       -1.968884    0.316629    0.766169
 ---------------------------------------------------------------------

 SCF Done:  E(ROHF) =  -354.357196437     A.U. after   14 cycles

 The electronic state is 1-A.
 Alpha  occ. eigenvalues --  -20.72934 -20.68279 -20.66136 -20.65727 -15.93975
 Alpha  occ. eigenvalues --   -1.69493  -1.54195  -1.48860  -1.26170  -0.93602
 Alpha  occ. eigenvalues --   -0.83929  -0.80902  -0.78983  -0.74656  -0.67884
 Alpha  occ. eigenvalues --   -0.60765  -0.55578  -0.54748  -0.51242  -0.50967
 Alpha virt. eigenvalues --    0.05624   0.07558   0.07591   0.09059   0.09958
 Alpha virt. eigenvalues --    0.11721   0.14237   0.15299   0.16359   0.16819
 Alpha virt. eigenvalues --    0.18291   0.19818   0.20750   0.21045   0.22025

 Mulliken charges and spin densities:
               1          2
     1  N    0.624716   0.000000
     2  O   -0.077852   0.000000
     3  O   -0.339877   0.000000
     4  O   -0.313129   0.000000
     5  O   -0.313213   0.000000
     6  H    0.419356   0.000000
 Sum of Mulliken charges =  -0.00000   0.00000

 Dipole moment (field-independent basis, Debye):
    X=             -1.7374    Y=              0.4226    Z=              1.5498  Tot=              2.3662
 Quadrupole moment (field-independent basis, Debye-Ang):
   XX=            -26.9368   YY=            -29.9835   ZZ=            -24.7192
   XY=             -0.8391   XZ=             -3.4079   YZ=              0.6845

 Normal termination of Gaussian 16 at Sat Sep 30 19:47:29 2023.
