 Gaussian 16, Revision B.01,
 Gaussian 16:  ES64L-G16RevB.01 20-Dec-2017

 --------------------
 # b3lyp/gen opt freq
 --------------------

 ---------------------------------
 peroxynitrous acid, B3LYP/pcseg-2
 ---------------------------------
 Symbolic Z-matrix:
 Charge =  0 Multiplicity = 1

 SCF Done:  E(RB3LYP) =  -280.961456241     A.U. after   14 cycles
 SCF Done:  E(RB3LYP) =  -280.961551294     A.U. after   11 cycles
 SCF Done:  E(RB3LYP) =  -280.961576130     A.U. after   10 cycles
 SCF Done:  E(RB3LYP) =  -280.961577035     A.U. after    9 cycles
 SCF Done:  E(RB3LYP) =  -280.961578068     A.U. after    7 cycles
 Optimization completed.
    -- Stationary point found.
 Normal termination of Gaussian 16 at Fri Jun 17 20:19:40 2022.

 ------------------------------------------------------------------
 #N Geom=AllCheck Guess=TCheck SCRF=Check GenChk RB3LYP/ChkBas Freq
 ------------------------------------------------------------------

 Structure from the checkpoint file:  "/wrk/irikura/Gau-22495.chk"
 ---------------------------------
 peroxynitrous acid, B3LYP/pcseg-2
 ---------------------------------
 Charge =  0 Multiplicity = 1

                         Standard orientation:
 ---------------------------------------------------------------------
 Center     Atomic      Atomic             Coordinates (Angstroms)
 Number     Number       Type             X           Y           Z
 ---------------------------------------------------------------------
      1          8           0       -0.603144   -1.167815    0.000000
      2          7           0       -0.992753   -0.051720    0.000000
      3          8           0       -0.000000    0.906366   -0.000000
      4          8           0        1.327571    0.379949   -0.000000
      5          1           0        1.153859   -0.585958   -0.000000
 ---------------------------------------------------------------------

 SCF Done:  E(RB3LYP) =  -280.961578068     A.U. after    1 cycles

 The electronic state is 1-A'.
 Alpha  occ. eigenvalues --  -19.28588 -19.23760 -19.22998 -14.53049  -1.28169
 Alpha  occ. eigenvalues --   -1.16453  -0.98561  -0.71759  -0.62512  -0.55636
 Alpha  occ. eigenvalues --   -0.55453  -0.45729  -0.45078  -0.44673  -0.33378
 Alpha  occ. eigenvalues --   -0.32689
 Alpha virt. eigenvalues --   -0.11428  -0.03859   0.04051   0.10893   0.17689
 Alpha virt. eigenvalues --    0.20333   0.23057   0.24613   0.25523   0.29666
 Alpha virt. eigenvalues --    0.31836   0.33188   0.35961   0.39233   0.40604

 Mulliken charges:
               1
     1  O   -0.256004
     2  N    0.247963
     3  O   -0.022728
     4  O   -0.177847
     5  H    0.208615
 Sum of Mulliken charges =  -0.00000

 Dipole moment (field-independent basis, Debye):
    X=              0.2082    Y=             -0.9560    Z=              0.0000  Tot=              0.9784
 Quadrupole moment (field-independent basis, Debye-Ang):
   XX=            -23.0966   YY=            -23.3125   ZZ=            -21.5329
   XY=             -2.2511   XZ=             -0.0000   YZ=             -0.0000

  Exact polarizability:  30.404   4.214  27.688   0.000   0.000  14.124
 Approx polarizability:  50.487   9.677  54.848  -0.000   0.000  19.379

                      1                      2                      3
                     A"                     A'                     A"
 Frequencies --    363.9394               369.7252               509.6923
 Red. masses --      1.5493                 6.8114                 2.9643
 Frc consts  --      0.1209                 0.5486                 0.4537
 IR Inten    --     71.5817                 7.4314                32.8316

                      4                      5                      6
                     A'                     A'                     A'
 Frequencies --    666.4192               840.2972               963.2568
 Red. masses --     13.5768                13.2760                 8.6699
 Frc consts  --      3.5526                 5.5231                 4.7397
 IR Inten    --    109.6544                66.6365                13.1561

                      7                      8                      9
                     A'                     A'                     A'
 Frequencies --   1443.2171              1659.8985              3512.9213
 Red. masses --      1.2354                 9.9091                 1.0643
 Frc consts  --      1.5161                16.0860                 7.7381
 IR Inten    --     72.3195               207.1344                41.2537

 - Thermochemistry -
 -------------------
 Temperature   298.150 Kelvin.  Pressure   1.00000 Atm.
 Atom     1 has atomic number  8 and mass  15.99491

 Molecular mass:    62.99564 amu.
 Principal axes and moments of inertia in atomic units:
                           1         2         3
     Eigenvalues --    82.74073 227.12489 309.86562
           X            0.80130  -0.59826   0.00000
           Y            0.59826   0.80130   0.00000
           Z            0.00000  -0.00000   1.00000
 This molecule is an asymmetric top.
 Rotational symmetry number  1.
 Rotational temperatures (Kelvin)      1.04681     0.38135     0.27952
 Rotational constants (GHZ):          21.81200     7.94603     5.82427
 Zero-point vibrational energy      61783.3 (Joules/Mol)
                                   14.76657 (Kcal/Mol)
 Warning -- explicit consideration of   3 degrees of freedom as
           vibrations may cause significant error
 Vibrational temperatures:    523.63   531.95   733.33   958.83  1209.00
          (Kelvin)           1385.91  2076.47  2388.22  5054.31

 Zero-point correction=                           0.023532 (Hartree/Particle)
 Thermal correction to Energy=                    0.027513
 Thermal correction to Enthalpy=                  0.028458
 Thermal correction to Gibbs Free Energy=        -0.002472
 Sum of electronic and zero-point Energies=           -280.938046
 Sum of electronic and thermal Energies=              -280.934065
 Sum of electronic and thermal Enthalpies=            -280.933121
 Sum of electronic and thermal Free Energies=         -280.964050

                     E (Thermal)             CV                S
                      KCal/Mol        Cal/Mol-Kelvin    Cal/Mol-Kelvin
 Total                   17.265             12.305             65.096
 Electronic               0.000              0.000              0.000
 Translational            0.889              2.981             38.341
 Rotational               0.889              2.981             23.281
 Vibrational             15.487              6.344              3.475
 Vibration     1          0.737              1.546              1.105
 Vibration     2          0.742              1.534              1.081
 Vibration     3          0.865              1.229              0.634

 Optimization completed.
    -- Stationary point found.
 Normal termination of Gaussian 16 at Fri Jun 17 20:20:01 2022.
