 Gaussian 16, Revision B.01,
 Gaussian 16:  ES64L-G16RevB.01 20-Dec-2017

 --------------------
 # b3lyp/gen opt freq
 --------------------

 --------------------------------
 peroxynitric acid, B3LYP/pcseg-2
 --------------------------------
 Symbolic Z-matrix:
 Charge =  0 Multiplicity = 1

 SCF Done:  E(RB3LYP) =  -356.173180323     A.U. after   15 cycles
 SCF Done:  E(RB3LYP) =  -356.173199931     A.U. after   11 cycles
 SCF Done:  E(RB3LYP) =  -356.173133945     A.U. after   12 cycles
 SCF Done:  E(RB3LYP) =  -356.173217209     A.U. after    9 cycles
 SCF Done:  E(RB3LYP) =  -356.173218655     A.U. after    8 cycles
 Optimization completed.
    -- Stationary point found.
 Normal termination of Gaussian 16 at Thu Jun 16 17:17:55 2022.

 ------------------------------------------------------------------
 #N Geom=AllCheck Guess=TCheck SCRF=Check GenChk RB3LYP/ChkBas Freq
 ------------------------------------------------------------------

 Structure from the checkpoint file:  "/wrk/irikura/Gau-14064.chk"
 --------------------------------
 peroxynitric acid, B3LYP/pcseg-2
 --------------------------------
 Charge =  0 Multiplicity = 1

                         Standard orientation:
 ---------------------------------------------------------------------
 Center     Atomic      Atomic             Coordinates (Angstroms)
 Number     Number       Type             X           Y           Z
 ---------------------------------------------------------------------
      1          7           0        0.632804    0.078487    0.000462
      2          8           0       -0.624543   -0.776417    0.047339
      3          8           0       -1.750170    0.032650   -0.134580
      4          8           0        1.594754   -0.618491   -0.011816
      5          8           0        0.472636    1.254186    0.002891
      6          1           0       -1.971041    0.315179    0.766098
 ---------------------------------------------------------------------

 SCF Done:  E(RB3LYP) =  -356.173218655     A.U. after    1 cycles

 The electronic state is 1-A.
 Alpha  occ. eigenvalues --  -19.26894 -19.23613 -19.22405 -19.21981 -14.62906
 Alpha  occ. eigenvalues --   -1.31802  -1.18516  -1.14875  -0.94732  -0.69832
 Alpha  occ. eigenvalues --   -0.62523  -0.60831  -0.57782  -0.54714  -0.49137
 Alpha  occ. eigenvalues --   -0.41715  -0.38018  -0.36459  -0.35620  -0.34090
 Alpha virt. eigenvalues --   -0.09416  -0.03489  -0.01639   0.02958   0.12931
 Alpha virt. eigenvalues --    0.19399   0.22563   0.23795   0.25942   0.26465
 Alpha virt. eigenvalues --    0.29183   0.33309   0.34409   0.35228   0.36925

 Mulliken charges:
               1
     1  N    0.578655
     2  O   -0.117961
     3  O   -0.151497
     4  O   -0.265990
     5  O   -0.267304
     6  H    0.224096
 Sum of Mulliken charges =   0.00000

 Dipole moment (field-independent basis, Debye):
    X=             -1.3883    Y=              0.5293    Z=              1.5014  Tot=              2.1123
 Quadrupole moment (field-independent basis, Debye-Ang):
   XX=            -27.0274   YY=            -30.0303   ZZ=            -24.9674
   XY=             -0.8064   XZ=             -3.2838   YZ=              0.6386

  Exact polarizability:  42.494  -2.949  31.735  -0.805   0.352  17.626
 Approx polarizability:  67.659 -10.728  61.827  -0.466   0.314  24.775

                      1                      2                      3
                      A                      A                      A
 Frequencies --    145.2607               300.6501               365.8937
 Red. masses --      5.3090                 2.7495                 1.8237
 Frc consts  --      0.0660                 0.1464                 0.1438
 IR Inten    --     10.9298                15.3246                71.1054

                      4                      5                      6
                      A                      A                      A
 Frequencies --    454.2575               655.7574               742.4976
 Red. masses --     14.1773                12.4999                11.1198
 Frc consts  --      1.7236                 3.1670                 3.6119
 IR Inten    --     22.4216                10.7857                10.8055

                      7                      8                      9
                      A                      A                      A
 Frequencies --    813.6317               995.6651              1351.2091
 Red. masses --     14.9683                14.7925                14.6007
 Frc consts  --      5.8382                 8.6401                15.7061
 IR Inten    --    125.9289                42.9390               238.8123

                     10                     11                     12
                      A                      A                      A
 Frequencies --   1431.1787              1791.7116              3712.0559
 Red. masses --      1.1175                14.3870                 1.0687
 Frc consts  --      1.3487                27.2117                 8.6763
 IR Inten    --     59.1358               437.7531                54.0701

 - Thermochemistry -
 -------------------
 Temperature   298.150 Kelvin.  Pressure   1.00000 Atm.
 Atom     1 has atomic number  7 and mass  14.00307

 Molecular mass:    78.99056 amu.
 Principal axes and moments of inertia in atomic units:
                           1         2         3
     Eigenvalues --   150.01239 392.37156 536.03268
           X            0.99986  -0.00906  -0.01406
           Y            0.00914   0.99994   0.00624
           Z            0.01401  -0.00637   0.99988
 This molecule is an asymmetric top.
 Rotational symmetry number  1.
 Rotational temperatures (Kelvin)      0.57738     0.22074     0.16158
 Rotational constants (GHZ):          12.03061     4.59957     3.36685
 Zero-point vibrational energy      76320.4 (Joules/Mol)
                                   18.24101 (Kcal/Mol)
 Warning -- explicit consideration of   4 degrees of freedom as
           vibrations may cause significant error
 Vibrational temperatures:    209.00   432.57   526.44   653.58   943.49
          (Kelvin)           1068.29  1170.63  1432.54  1944.09  2059.15
                             2577.87  5340.82

 Zero-point correction=                           0.029069 (Hartree/Particle)
 Thermal correction to Energy=                    0.033934
 Thermal correction to Enthalpy=                  0.034878
 Thermal correction to Gibbs Free Energy=         0.001165
 Sum of electronic and zero-point Energies=           -356.144150
 Sum of electronic and thermal Energies=              -356.139284
 Sum of electronic and thermal Enthalpies=            -356.138340
 Sum of electronic and thermal Free Energies=         -356.172054

                     E (Thermal)             CV                S
                      KCal/Mol        Cal/Mol-Kelvin    Cal/Mol-Kelvin
 Total                   21.294             15.359             70.957
 Electronic               0.000              0.000              0.000
 Translational            0.889              2.981             39.015
 Rotational               0.889              2.981             24.960
 Vibrational             19.517              9.397              6.982
 Vibration     1          0.617              1.908              2.733
 Vibration     2          0.693              1.672              1.413
 Vibration     3          0.739              1.542              1.097
 Vibration     4          0.813              1.351              0.783

                           ! Non-Optimized Parameters !
 Normal termination of Gaussian 16 at Thu Jun 16 17:18:41 2022.
