 Gaussian 16, Revision B.01,

 ---------------------------------------
 # b3lyp/gen opt freq CPHF(Grid=OneStep)
 ---------------------------------------

 ------------------------
 iso-butyl, B3LYP/pcseg-2
 ------------------------
 Symbolic Z-matrix:
 Charge =  0 Multiplicity = 2

 SCF Done:  E(UB3LYP) =  -157.853218977     A.U. after   13 cycles
 Optimization completed.
    -- Stationary point found.
 Normal termination of Gaussian 16 at Wed Sep 27 18:44:15 2023.

 ------------------------------------------------------------------
 #N Geom=AllCheck Guess=TCheck SCRF=Check GenChk UB3LYP/ChkBas Freq
 ------------------------------------------------------------------

 Structure from the checkpoint file:  "iBu.chk"
 ------------------------
 iso-butyl, B3LYP/pcseg-2
 ------------------------
 Charge =  0 Multiplicity = 2

 SCF Done:  E(UB3LYP) =  -157.853218977     A.U. after    1 cycles

  Exact polarizability:  49.045   4.489  51.515   0.000   0.000  53.615
 Approx polarizability:  68.328   2.756  67.211  -0.000   0.000  67.456

                      1                      2                      3
                     A"                     A"                     A'
 Frequencies --    122.3009               227.9744               252.4903
 Red. masses --      1.0227                 1.0322                 1.0629
 Frc consts  --      0.0090                 0.0316                 0.0399
 IR Inten    --      0.0452                 0.0103                 0.1066

                      4                      5                      6
                     A'                     A"                     A'
 Frequencies --    360.5362               374.6807               412.6114
 Red. masses --      2.0621                 2.0996                 1.6010
 Frc consts  --      0.1579                 0.1737                 0.1606
 IR Inten    --      0.4519                 0.1978                13.4270

                      7                      8                      9
                     A'                     A'                     A"
 Frequencies --    547.7467               810.6230               905.7998
 Red. masses --      1.6837                 2.8951                 1.3159
 Frc consts  --      0.2976                 1.1208                 0.6361
 IR Inten    --     34.2448                 0.0287                 0.2532

                     10                     11                     12
                     A"                     A"                     A'
 Frequencies --    947.2544               967.1311               981.9826
 Red. masses --      1.2063                 1.5348                 1.8877
 Frc consts  --      0.6377                 0.8458                 1.0725
 IR Inten    --      0.7696                 0.0049                 0.6282

                     13                     14                     15
                     A'                     A"                     A'
 Frequencies --   1090.0523              1179.9038              1204.9941
 Red. masses --      1.4649                 1.7893                 1.7458
 Frc consts  --      1.0255                 1.4676                 1.4935
 IR Inten    --      1.0291                 0.7805                 1.1469

                     16                     17                     18
                     A'                     A"                     A"
 Frequencies --   1316.9874              1326.3336              1398.4484
 Red. masses --      1.6490                 1.4661                 1.2202
 Frc consts  --      1.6851                 1.5195                 1.4060
 IR Inten    --      3.8293                 0.9708                 4.2304

                     19                     20                     21
                     A'                     A'                     A"
 Frequencies --   1413.6585              1466.8193              1487.7844
 Red. masses --      1.2163                 1.1630                 1.0420
 Frc consts  --      1.4322                 1.4743                 1.3590
 IR Inten    --      3.6089                 2.4482                 0.1145

                     22                     23                     24
                     A"                     A'                     A'
 Frequencies --   1491.3214              1501.7932              1509.3391
 Red. masses --      1.0506                 1.0446                 1.0641
 Frc consts  --      1.3767                 1.3881                 1.4282
 IR Inten    --      3.1073                 7.2883                 9.3268

                     25                     26                     27
                     A'                     A"                     A'
 Frequencies --   2896.8330              3022.9065              3026.8958
 Red. masses --      1.0781                 1.0340                 1.0347
 Frc consts  --      5.3303                 5.5668                 5.5854
 IR Inten    --     28.7714                37.2317                19.9889

                     28                     29                     30
                     A"                     A'                     A"
 Frequencies --   3085.6107              3089.4844              3090.1069
 Red. masses --      1.1023                 1.1015                 1.1024
 Frc consts  --      6.1834                 6.1942                 6.2022
 IR Inten    --      3.7536                50.0394                19.1435

                     31                     32                     33
                     A'                     A'                     A"
 Frequencies --   3092.3854              3136.2447              3235.9416
 Red. masses --      1.1016                 1.0509                 1.1183
 Frc consts  --      6.2069                 6.0901                 6.8994
 IR Inten    --     50.4087                17.0144                14.7940

 - Thermochemistry -
 -------------------
 Temperature   298.150 Kelvin.  Pressure   1.00000 Atm.
 Atom     1 has atomic number  6 and mass  12.00000

 Molecular mass:    57.07043 amu.
 Principal axes and moments of inertia in atomic units:
                           1         2         3
     Eigenvalues --   213.58268 227.94799 390.46803
           X           -0.00000   0.51667   0.85618
           Y           -0.00000   0.85618  -0.51667
           Z            1.00000   0.00000   0.00000
 This molecule is an asymmetric top.
 Rotational symmetry number  1.
 Rotational temperatures (Kelvin)      0.40553     0.37997     0.22182
 Rotational constants (GHZ):           8.44985     7.91734     4.62199
 Zero-point vibrational energy     304898.1 (Joules/Mol)
                                   72.87239 (Kcal/Mol)
 Warning -- explicit consideration of   7 degrees of freedom as
           vibrations may cause significant error
 Vibrational temperatures:    175.96   328.00   363.28   518.73   539.08
          (Kelvin)            593.66   788.09  1166.31  1303.24  1362.89
                             1391.49  1412.85  1568.34  1697.62  1733.72
                             1894.85  1908.30  2012.06  2033.94  2110.43
                             2140.59  2145.68  2160.75  2171.60  4167.90
                             4349.29  4355.03  4439.51  4445.08  4445.97
                             4449.25  4512.36  4655.80

 Zero-point correction=                           0.116130 (Hartree/Particle)
 Thermal correction to Energy=                    0.122205
 Thermal correction to Enthalpy=                  0.123149
 Thermal correction to Gibbs Free Energy=         0.087441
 Sum of electronic and zero-point Energies=           -157.737089
 Sum of electronic and thermal Energies=              -157.731014
 Sum of electronic and thermal Enthalpies=            -157.730070
 Sum of electronic and thermal Free Energies=         -157.765778

                     E (Thermal)             CV                S
                      KCal/Mol        Cal/Mol-Kelvin    Cal/Mol-Kelvin
 Total                   76.685             21.070             75.153
 Electronic               0.000              0.000              1.377
 Translational            0.889              2.981             38.046
 Rotational               0.889              2.981             24.456
 Vibrational             74.907             15.108             11.273
 Vibration     1          0.610              1.931              3.064
 Vibration     2          0.651              1.798              1.895
 Vibration     3          0.664              1.759              1.713
 Vibration     4          0.735              1.554              1.120
 Vibration     5          0.746              1.524              1.061
 Vibration     6          0.776              1.443              0.917
 Vibration     7          0.903              1.145              0.549

 Optimization completed.
    -- Stationary point found.
 Normal termination of Gaussian 16 at Wed Sep 27 18:59:59 2023.
 Gaussian 16:  ES64L-G16RevB.01 20-Dec-2017

 ---------------------------------
 # rohf/gen geom=check guess=check
 ---------------------------------

 ---------------------------
 iso-butyl, ROHF/cc-pVTZ-F12
 ---------------------------
 Structure from the checkpoint file:  "iBu.chk"
 Charge =  0 Multiplicity = 2

                         Standard orientation:
 ---------------------------------------------------------------------
 Center     Atomic      Atomic             Coordinates (Angstroms)
 Number     Number       Type             X           Y           Z
 ---------------------------------------------------------------------
      1          6           0       -0.264867    0.229937   -0.000000
      2          6           0        0.852188    1.214654   -0.000000
      3          1           0       -1.212409    0.795225   -0.000000
      4          1           0        1.223269    1.632908    0.925610
      5          1           0        1.223269    1.632908   -0.925610
      6          6           0       -0.264867   -0.633637   -1.268924
      7          6           0       -0.264867   -0.633637    1.268924
      8          1           0        0.635281   -1.249420   -1.316575
      9          1           0       -1.129959   -1.298098   -1.289670
     10          1           0       -0.295150   -0.014951   -2.166980
     11          1           0        0.635281   -1.249420    1.316575
     12          1           0       -1.129959   -1.298098    1.289670
     13          1           0       -0.295150   -0.014951    2.166980
 ---------------------------------------------------------------------

 SCF Done:  E(ROHF) =  -156.727978561     A.U. after   16 cycles

 The electronic state is 2-A'.
 Alpha  occ. eigenvalues --  -11.22921 -11.21137 -11.20977 -11.20975  -1.07600
 Alpha  occ. eigenvalues --   -0.92903  -0.89175  -0.75464  -0.61897  -0.60106
 Alpha  occ. eigenvalues --   -0.59184  -0.53680  -0.51823  -0.48237  -0.47349
 Alpha  occ. eigenvalues --   -0.46762  -0.06085
 Alpha virt. eigenvalues --    0.05017   0.05252   0.05458   0.06156   0.08599
 Alpha virt. eigenvalues --    0.08977   0.09111   0.09578   0.10417   0.11698
 Alpha virt. eigenvalues --    0.13545   0.13656   0.13856   0.17850   0.18789

 Mulliken charges and spin densities:
               1          2
     1  C    0.074415   0.007497
     2  C   -0.335741   0.921368
     3  H    0.080170   0.018516
     4  H    0.128312   0.021602
     5  H    0.128312   0.021602
     6  C   -0.317162   0.002284
     7  C   -0.317162   0.002284
     8  H    0.104985   0.001514
     9  H    0.088901   0.000922
    10  H    0.085541  -0.000013
    11  H    0.104985   0.001514
    12  H    0.088901   0.000922
    13  H    0.085541  -0.000013
 Sum of Mulliken charges =  -0.00000   1.00000

 Dipole moment (field-independent basis, Debye):
    X=             -0.2621    Y=              0.0119    Z=              0.0000  Tot=              0.2624
 Quadrupole moment (field-independent basis, Debye-Ang):
   XX=            -28.3775   YY=            -28.3992   ZZ=            -27.7637
   XY=              0.2576   XZ=             -0.0000   YZ=              0.0000

 Normal termination of Gaussian 16 at Wed Sep 27 19:02:45 2023.
