 Gaussian 16, Revision B.01,
 Gaussian 16:  ES64L-G16RevB.01 20-Dec-2017

 --------------------
 # b3lyp/gen opt freq
 --------------------

 ------------------------
 iso-butyl, B3LYP/pcseg-2
 ------------------------
 Symbolic Z-matrix:
 Charge =  0 Multiplicity = 2

 SCF Done:  E(UB3LYP) =  -157.853135722     A.U. after   13 cycles
 SCF Done:  E(UB3LYP) =  -157.853217721     A.U. after    9 cycles
 SCF Done:  E(UB3LYP) =  -157.853218977     A.U. after    7 cycles
 Optimization completed.
    -- Stationary point found.
 Normal termination of Gaussian 16 at Fri Jun 17 13:49:59 2022.

 ------------------------------------------------------------------
 #N Geom=AllCheck Guess=TCheck SCRF=Check GenChk UB3LYP/ChkBas Freq
 ------------------------------------------------------------------

 Structure from the checkpoint file:  "/wrk/irikura/Gau-2671.chk"
 ------------------------
 iso-butyl, B3LYP/pcseg-2
 ------------------------
 Charge =  0 Multiplicity = 2

                         Standard orientation:
 ---------------------------------------------------------------------
 Center     Atomic      Atomic             Coordinates (Angstroms)
 Number     Number       Type             X           Y           Z
 ---------------------------------------------------------------------
      1          6           0       -0.264867    0.229937    0.000000
      2          6           0        0.852188    1.214654   -0.000000
      3          1           0       -1.212409    0.795225    0.000000
      4          1           0        1.223269    1.632908    0.925610
      5          1           0        1.223269    1.632908   -0.925610
      6          6           0       -0.264867   -0.633637   -1.268924
      7          6           0       -0.264867   -0.633637    1.268924
      8          1           0        0.635281   -1.249420   -1.316575
      9          1           0       -1.129959   -1.298098   -1.289670
     10          1           0       -0.295150   -0.014951   -2.166980
     11          1           0        0.635281   -1.249420    1.316575
     12          1           0       -1.129959   -1.298098    1.289670
     13          1           0       -0.295150   -0.014951    2.166980
 ---------------------------------------------------------------------

 SCF Done:  E(UB3LYP) =  -157.853218977     A.U. after    1 cycles

 The electronic state is 2-A'.
 Alpha  occ. eigenvalues --  -10.18087 -10.17521 -10.15988 -10.15987  -0.80894
 Alpha  occ. eigenvalues --   -0.68713  -0.67725  -0.56251  -0.46376  -0.44762
 Alpha  occ. eigenvalues --   -0.43832  -0.38992  -0.37464  -0.35384  -0.34482
 Alpha  occ. eigenvalues --   -0.33812  -0.20738
 Alpha virt. eigenvalues --    0.01504   0.04703   0.04876   0.05198   0.07530
 Alpha virt. eigenvalues --    0.07682   0.08259   0.11038   0.11935   0.12448
 Alpha virt. eigenvalues --    0.15436   0.17387   0.18106   0.18697   0.21454

  Beta  occ. eigenvalues --  -10.18166 -10.16094 -10.15948 -10.15947  -0.80198
  Beta  occ. eigenvalues --   -0.68650  -0.65404  -0.55240  -0.45776  -0.44207
  Beta  occ. eigenvalues --   -0.43600  -0.38941  -0.37207  -0.34743  -0.33723
  Beta  occ. eigenvalues --   -0.33660
  Beta virt. eigenvalues --   -0.06311   0.01661   0.04695   0.05039   0.05490
  Beta virt. eigenvalues --    0.07691   0.07733   0.08377   0.11007   0.11975
  Beta virt. eigenvalues --    0.12459   0.15788   0.17481   0.18131   0.19222

 Mulliken charges and spin densities:
               1          2
     1  C    0.067868  -0.083101
     2  C   -0.187299   1.076600
     3  H    0.019797   0.059442
     4  H    0.054485  -0.038697
     5  H    0.054485  -0.038697
     6  C   -0.085274   0.007252
     7  C   -0.085274   0.007252
     8  H    0.025249   0.003580
     9  H    0.026323   0.002361
    10  H    0.029034  -0.000966
    11  H    0.025249   0.003580
    12  H    0.026323   0.002361
    13  H    0.029034  -0.000966
 Sum of Mulliken charges =  -0.00000   1.00000

 Dipole moment (field-independent basis, Debye):
    X=             -0.3312    Y=             -0.0289    Z=              0.0000  Tot=              0.3325
 Quadrupole moment (field-independent basis, Debye-Ang):
   XX=            -28.5627   YY=            -28.6266   ZZ=            -27.8609
   XY=              0.2236   XZ=              0.0000   YZ=              0.0000

  Exact polarizability:  49.046   4.489  51.516   0.000   0.000  53.615
 Approx polarizability:  68.328   2.756  67.211  -0.000  -0.000  67.456

                      1                      2                      3
                     A"                     A"                     A'
 Frequencies --    122.6701               227.9756               252.4866
 Red. masses --      1.0227                 1.0322                 1.0629
 Frc consts  --      0.0091                 0.0316                 0.0399
 IR Inten    --      0.0452                 0.0103                 0.1068

                      4                      5                      6
                     A'                     A"                     A'
 Frequencies --    360.5341               374.6794               412.5834
 Red. masses --      2.0620                 2.0996                 1.6010
 Frc consts  --      0.1579                 0.1737                 0.1606
 IR Inten    --      0.4527                 0.1977                13.4305

                      7                      8                      9
                     A'                     A'                     A"
 Frequencies --    547.7413               810.6228               905.7952
 Red. masses --      1.6838                 2.8951                 1.3159
 Frc consts  --      0.2976                 1.1209                 0.6361
 IR Inten    --     34.2421                 0.0287                 0.2532

                     10                     11                     12
                     A"                     A"                     A'
 Frequencies --    947.2526               967.1271               981.9753
 Red. masses --      1.2062                 1.5349                 1.8876
 Frc consts  --      0.6377                 0.8459                 1.0724
 IR Inten    --      0.7697                 0.0049                 0.6290

                     13                     14                     15
                     A'                     A"                     A'
 Frequencies --   1090.0467              1179.9025              1204.9937
 Red. masses --      1.4649                 1.7893                 1.7458
 Frc consts  --      1.0255                 1.4676                 1.4935
 IR Inten    --      1.0295                 0.7805                 1.1471

                     16                     17                     18
                     A'                     A"                     A"
 Frequencies --   1316.9857              1326.3315              1398.4483
 Red. masses --      1.6489                 1.4660                 1.2202
 Frc consts  --      1.6851                 1.5195                 1.4060
 IR Inten    --      3.8300                 0.9707                 4.2312

                     19                     20                     21
                     A'                     A'                     A"
 Frequencies --   1413.6554              1466.8172              1487.7784
 Red. masses --      1.2163                 1.1630                 1.0420
 Frc consts  --      1.4322                 1.4743                 1.3590
 IR Inten    --      3.6094                 2.4499                 0.1157

                     22                     23                     24
                     A"                     A'                     A'
 Frequencies --   1491.3243              1501.7902              1509.3354
 Red. masses --      1.0506                 1.0446                 1.0641
 Frc consts  --      1.3767                 1.3881                 1.4282
 IR Inten    --      3.1060                 7.2886                 9.3256

                     25                     26                     27
                     A'                     A"                     A'
 Frequencies --   2896.8290              3022.9080              3026.8929
 Red. masses --      1.0781                 1.0340                 1.0347
 Frc consts  --      5.3303                 5.5668                 5.5853
 IR Inten    --     28.7762                37.2354                19.9852

                     28                     29                     30
                     A"                     A'                     A"
 Frequencies --   3085.6147              3089.4825              3090.0984
 Red. masses --      1.1023                 1.1015                 1.1024
 Frc consts  --      6.1834                 6.1942                 6.2022
 IR Inten    --      3.7383                50.0251                19.1463

                     31                     32                     33
                     A'                     A'                     A"
 Frequencies --   3092.3802              3136.2398              3235.9369
 Red. masses --      1.1016                 1.0509                 1.1183
 Frc consts  --      6.2069                 6.0901                 6.8994
 IR Inten    --     50.4325                17.0151                14.7991

 - Thermochemistry -
 -------------------
 Temperature   298.150 Kelvin.  Pressure   1.00000 Atm.
 Atom     1 has atomic number  6 and mass  12.00000

 Molecular mass:    57.07043 amu.
 Principal axes and moments of inertia in atomic units:
                           1         2         3
     Eigenvalues --   213.58264 227.94793 390.46793
           X            0.00000   0.51667   0.85618
           Y            0.00000   0.85618  -0.51667
           Z            1.00000  -0.00000  -0.00000
 This molecule is an asymmetric top.
 Rotational symmetry number  1.
 Rotational temperatures (Kelvin)      0.40553     0.37997     0.22182
 Rotational constants (GHZ):           8.44985     7.91734     4.62200
 Zero-point vibrational energy     304899.6 (Joules/Mol)
                                   72.87276 (Kcal/Mol)
 Warning -- explicit consideration of   7 degrees of freedom as
           vibrations may cause significant error
 Vibrational temperatures:    176.49   328.01   363.27   518.73   539.08
          (Kelvin)            593.62   788.08  1166.31  1303.24  1362.89
                             1391.48  1412.84  1568.33  1697.62  1733.72
                             1894.85  1908.30  2012.06  2033.93  2110.42
                             2140.58  2145.68  2160.74  2171.60  4167.89
                             4349.29  4355.02  4439.51  4445.08  4445.96
                             4449.25  4512.35  4655.79

 Zero-point correction=                           0.116130 (Hartree/Particle)
 Thermal correction to Energy=                    0.122205
 Thermal correction to Enthalpy=                  0.123149
 Thermal correction to Gibbs Free Energy=         0.087444
 Sum of electronic and zero-point Energies=           -157.737089
 Sum of electronic and thermal Energies=              -157.731014
 Sum of electronic and thermal Enthalpies=            -157.730070
 Sum of electronic and thermal Free Energies=         -157.765775

                     E (Thermal)             CV                S
                      KCal/Mol        Cal/Mol-Kelvin    Cal/Mol-Kelvin
 Total                   76.685             21.070             75.147
 Electronic               0.000              0.000              1.377
 Translational            0.889              2.981             38.046
 Rotational               0.889              2.981             24.456
 Vibrational             74.907             15.108             11.267
 Vibration     1          0.610              1.930              3.058
 Vibration     2          0.651              1.798              1.895
 Vibration     3          0.664              1.759              1.713
 Vibration     4          0.735              1.554              1.120
 Vibration     5          0.746              1.524              1.061
 Vibration     6          0.776              1.443              0.918
 Vibration     7          0.903              1.145              0.549

 Optimization completed.
    -- Stationary point found.
 Normal termination of Gaussian 16 at Fri Jun 17 13:53:17 2022.
