 Gaussian 16, Revision B.01,
 Gaussian 16:  ES64L-G16RevB.01 20-Dec-2017

 --------------------
 # b3lyp/gen opt freq
 --------------------

 -----------------------
 i-butane, B3LYP/pcseg-2
 -----------------------
 Symbolic Z-matrix:
 Charge =  0 Multiplicity = 1

 SCF Done:  E(RB3LYP) =  -158.525640963     A.U. after   11 cycles
 SCF Done:  E(RB3LYP) =  -158.525641934     A.U. after    5 cycles
 Optimization completed.
    -- Stationary point found.
 Normal termination of Gaussian 16 at Wed Jun 15 10:29:23 2022.

 ------------------------------------------------------------------
 #N Geom=AllCheck Guess=TCheck SCRF=Check GenChk RB3LYP/ChkBas Freq
 ------------------------------------------------------------------

 Structure from the checkpoint file:  "/wrk/irikura/Gau-3438.chk"
 -----------------------
 i-butane, B3LYP/pcseg-2
 -----------------------
 Charge =  0 Multiplicity = 1

                         Standard orientation:
 ---------------------------------------------------------------------
 Center     Atomic      Atomic             Coordinates (Angstroms)
 Number     Number       Type             X           Y           Z
 ---------------------------------------------------------------------
      1          6           0        0.000000    0.000000    0.371305
      2          1           0        0.000000    0.000000    1.466599
      3          6           0        0.000000    1.458003   -0.095462
      4          6           0        1.262668   -0.729001   -0.095462
      5          6           0       -1.262668   -0.729001   -0.095462
      6          1           0        0.000000    1.515531   -1.186988
      7          1           0        1.312488   -0.757765   -1.186988
      8          1           0       -1.312488   -0.757765   -1.186988
      9          1           0        0.882095    1.990712    0.264143
     10          1           0       -0.882095    1.990712    0.264143
     11          1           0        1.282959   -1.759272    0.264143
     12          1           0        2.165054   -0.231439    0.264143
     13          1           0       -2.165054   -0.231439    0.264143
     14          1           0       -1.282959   -1.759272    0.264143
 ---------------------------------------------------------------------

 SCF Done:  E(RB3LYP) =  -158.525641934     A.U. after    1 cycles

 The electronic state is 1-A1.
 Alpha  occ. eigenvalues --  -10.17268 -10.15564 -10.15564 -10.15563  -0.80296
 Alpha  occ. eigenvalues --   -0.68293  -0.68293  -0.56105  -0.46503  -0.43285
 Alpha  occ. eigenvalues --   -0.43285  -0.38541  -0.38541  -0.36509  -0.33056
 Alpha  occ. eigenvalues --   -0.33056  -0.32408
 Alpha virt. eigenvalues --    0.01245   0.04599   0.04886   0.04886   0.07642
 Alpha virt. eigenvalues --    0.07733   0.07733   0.11375   0.11375   0.12068
 Alpha virt. eigenvalues --    0.13179   0.14984   0.14984   0.18345   0.18345

 Mulliken charges:
               1
     1  C    0.038644
     2  H    0.011210
     3  C   -0.086591
     4  C   -0.086591
     5  C   -0.086591
     6  H    0.017266
     7  H    0.017266
     8  H    0.017266
     9  H    0.026354
    10  H    0.026354
    11  H    0.026354
    12  H    0.026354
    13  H    0.026354
    14  H    0.026354
 Sum of Mulliken charges =  -0.00000

 Dipole moment (field-independent basis, Debye):
    X=              0.0000    Y=              0.0000    Z=              0.1421  Tot=              0.1421
 Quadrupole moment (field-independent basis, Debye-Ang):
   XX=            -29.2416   YY=            -29.2416   ZZ=            -28.5718
   XY=              0.0000   XZ=             -0.0000   YZ=              0.0000

  Exact polarizability:  54.542   0.000  54.542  -0.000  -0.000  47.878
 Approx polarizability:  69.517  -0.000  69.517   0.000  -0.000  69.392

                      1                      2                      3
                     A2                      E                      E
 Frequencies --    213.7496               254.7573               254.7573
 Red. masses --      1.0124                 1.0590                 1.0590
 Frc consts  --      0.0273                 0.0405                 0.0405
 IR Inten    --      0.0000                 0.0121                 0.0121

                      4                      5                      6
                      E                      E                     A1
 Frequencies --    364.4450               364.4461               431.3431
 Red. masses --      2.0681                 2.0681                 1.9185
 Frc consts  --      0.1618                 0.1618                 0.2103
 IR Inten    --      0.0271                 0.0271                 0.1545

                      7                      8                      9
                     A1                      E                      E
 Frequencies --    795.5875               925.9492               925.9495
 Red. masses --      2.8316                 1.2398                 1.2398
 Frc consts  --      1.0560                 0.6263                 0.6263
 IR Inten    --      0.4975                 0.7282                 0.7283

                     10                     11                     12
                     A2                      E                      E
 Frequencies --    959.0167               971.8031               971.8032
 Red. masses --      1.2021                 1.7626                 1.7626
 Frc consts  --      0.6514                 0.9808                 0.9808
 IR Inten    --      0.0000                 0.0029                 0.0029

                     13                     14                     15
                      E                      E                     A1
 Frequencies --   1191.9594              1191.9594              1211.3468
 Red. masses --      1.7535                 1.7535                 1.9248
 Frc consts  --      1.4678                 1.4678                 1.6640
 IR Inten    --      2.7490                 2.7487                 0.0900

                     16                     17                     18
                      E                      E                      E
 Frequencies --   1361.0490              1361.0492              1401.0256
 Red. masses --      1.3915                 1.3915                 1.2396
 Frc consts  --      1.5187                 1.5187                 1.4335
 IR Inten    --      3.6208                 3.6204                 6.3290

                     19                     20                     21
                      E                     A1                     A2
 Frequencies --   1401.0257              1429.3077              1482.0022
 Red. masses --      1.2396                 1.2293                 1.0484
 Frc consts  --      1.4335                 1.4797                 1.3567
 IR Inten    --      6.3292                 3.6915                 0.0000

                     22                     23                     24
                      E                      E                      E
 Frequencies --   1488.6754              1488.6755              1506.0135
 Red. masses --      1.0405                 1.0405                 1.0584
 Frc consts  --      1.3587                 1.3587                 1.4144
 IR Inten    --      0.3570                 0.3570                 4.7010

                     25                     26                     27
                      E                     A1                     A1
 Frequencies --   1506.0136              1513.2538              2996.0050
 Red. masses --      1.0584                 1.0448                 1.0830
 Frc consts  --      1.4144                 1.4097                 5.7274
 IR Inten    --      4.7013                19.1447                12.3387

                     28                     29                     30
                      E                      E                     A1
 Frequencies --   3015.3574              3015.3574              3022.8189
 Red. masses --      1.0352                 1.0352                 1.0364
 Frc consts  --      5.5459                 5.5459                 5.5797
 IR Inten    --     35.7310                35.7323                15.8497

                     31                     32                     33
                      E                      E                     A2
 Frequencies --   3073.4373              3073.4373              3082.9299
 Red. masses --      1.1006                 1.1006                 1.1027
 Frc consts  --      6.1251                 6.1251                 6.1749
 IR Inten    --      7.2154                 7.2154                 0.0000

                     34                     35                     36
                     A1                      E                      E
 Frequencies --   3083.2246              3086.7815              3086.7815
 Red. masses --      1.0994                 1.1013                 1.1013
 Frc consts  --      6.1575                 6.1827                 6.1827
 IR Inten    --     98.6787                57.0778                57.0831

 - Thermochemistry -
 -------------------
 Temperature   298.150 Kelvin.  Pressure   1.00000 Atm.
 Atom     1 has atomic number  6 and mass  12.00000

 Molecular mass:    58.07825 amu.
 Principal axes and moments of inertia in atomic units:
                           1         2         3
     Eigenvalues --   231.75534 231.75534 400.46267
           X           -0.37410   0.92739   0.00000
           Y            0.92739   0.37410   0.00000
           Z           -0.00000  -0.00000   1.00000
 This molecule is an oblate symmetric top.
 Rotational symmetry number  3.
 Rotational temperatures (Kelvin)      0.37373     0.37373     0.21628
 Rotational constants (GHZ):           7.78727     7.78727     4.50664
 Zero-point vibrational energy     343944.9 (Joules/Mol)
                                   82.20480 (Kcal/Mol)
 Warning -- explicit consideration of   6 degrees of freedom as
           vibrations may cause significant error
 Vibrational temperatures:    307.54   366.54   366.54   524.36   524.36
          (Kelvin)            620.61  1144.67  1332.23  1332.23  1379.81
                             1398.21  1398.21  1714.96  1714.96  1742.86
                             1958.25  1958.25  2015.76  2015.76  2056.45
                             2132.27  2141.87  2141.87  2166.82  2166.82
                             2177.23  4310.58  4338.43  4338.43  4349.16
                             4421.99  4421.99  4435.65  4436.07  4441.19
                             4441.19

 Zero-point correction=                           0.131002 (Hartree/Particle)
 Thermal correction to Energy=                    0.136727
 Thermal correction to Enthalpy=                  0.137671
 Thermal correction to Gibbs Free Energy=         0.104396
 Sum of electronic and zero-point Energies=           -158.394640
 Sum of electronic and thermal Energies=              -158.388915
 Sum of electronic and thermal Enthalpies=            -158.387971
 Sum of electronic and thermal Free Energies=         -158.421246

                     E (Thermal)             CV                S
                      KCal/Mol        Cal/Mol-Kelvin    Cal/Mol-Kelvin
 Total                   85.797             20.237             70.034
 Electronic               0.000              0.000              0.000
 Translational            0.889              2.981             38.098
 Rotational               0.889              2.981             22.396
 Vibrational             84.020             14.276              9.540
 Vibration     1          0.644              1.820              2.011
 Vibration     2          0.665              1.755              1.697
 Vibration     3          0.665              1.755              1.697
 Vibration     4          0.738              1.545              1.103
 Vibration     5          0.738              1.545              1.103
 Vibration     6          0.792              1.402              0.854

 Optimization completed.
    -- Stationary point found.
 Normal termination of Gaussian 16 at Wed Jun 15 10:33:48 2022.
