 Gaussian 16, Revision B.01,

 ---------------------------------------
 # b3lyp/gen opt freq CPHF(Grid=OneStep)
 ---------------------------------------

 -----------------------
 i-butane, B3LYP/pcseg-2
 -----------------------
 Symbolic Z-matrix:
 Charge =  0 Multiplicity = 1

 SCF Done:  E(RB3LYP) =  -158.525641934     A.U. after   11 cycles
 Optimization completed.
    -- Stationary point found.
 Normal termination of Gaussian 16 at Fri Sep 29 13:07:37 2023.

 ------------------------------------------------------------------
 #N Geom=AllCheck Guess=TCheck SCRF=Check GenChk RB3LYP/ChkBas Freq
 ------------------------------------------------------------------

 Structure from the checkpoint file:  "ibutane.chk"
 -----------------------
 i-butane, B3LYP/pcseg-2
 -----------------------
 Charge =  0 Multiplicity = 1

 SCF Done:  E(RB3LYP) =  -158.525641934     A.U. after    1 cycles

  Exact polarizability:  54.542   0.000  54.542  -0.000   0.000  47.878
 Approx polarizability:  69.517  -0.000  69.517   0.000  -0.000  69.392

                      1                      2                      3
                     A2                      E                      E
 Frequencies --    213.7532               254.7596               254.7596
 Red. masses --      1.0124                 1.0590                 1.0590
 Frc consts  --      0.0273                 0.0405                 0.0405
 IR Inten    --      0.0000                 0.0121                 0.0121

                      4                      5                      6
                      E                      E                     A1
 Frequencies --    364.4445               364.4448               431.3432
 Red. masses --      2.0681                 2.0681                 1.9185
 Frc consts  --      0.1618                 0.1618                 0.2103
 IR Inten    --      0.0271                 0.0271                 0.1545

                      7                      8                      9
                     A1                      E                      E
 Frequencies --    795.5873               925.9464               925.9466
 Red. masses --      2.8316                 1.2398                 1.2398
 Frc consts  --      1.0560                 0.6263                 0.6263
 IR Inten    --      0.4975                 0.7283                 0.7282

                     10                     11                     12
                     A2                      E                      E
 Frequencies --    959.0282               971.8070               971.8073
 Red. masses --      1.2021                 1.7626                 1.7626
 Frc consts  --      0.6514                 0.9808                 0.9808
 IR Inten    --      0.0000                 0.0029                 0.0029

                     13                     14                     15
                      E                      E                     A1
 Frequencies --   1191.9584              1191.9585              1211.3464
 Red. masses --      1.7535                 1.7535                 1.9248
 Frc consts  --      1.4678                 1.4678                 1.6640
 IR Inten    --      2.7488                 2.7489                 0.0900

                     16                     17                     18
                      E                      E                      E
 Frequencies --   1361.0492              1361.0494              1401.0269
 Red. masses --      1.3915                 1.3915                 1.2396
 Frc consts  --      1.5187                 1.5187                 1.4335
 IR Inten    --      3.6214                 3.6212                 6.3286

                     19                     20                     21
                      E                     A1                     A2
 Frequencies --   1401.0269              1429.3088              1482.0038
 Red. masses --      1.2396                 1.2293                 1.0484
 Frc consts  --      1.4335                 1.4797                 1.3567
 IR Inten    --      6.3286                 3.6912                 0.0000

                     22                     23                     24
                      E                      E                      E
 Frequencies --   1488.6815              1488.6815              1506.0145
 Red. masses --      1.0405                 1.0405                 1.0584
 Frc consts  --      1.3587                 1.3587                 1.4144
 IR Inten    --      0.3565                 0.3565                 4.7020

                     25                     26                     27
                      E                     A1                     A1
 Frequencies --   1506.0146              1513.2545              2996.0149
 Red. masses --      1.0584                 1.0448                 1.0830
 Frc consts  --      1.4144                 1.4097                 5.7274
 IR Inten    --      4.7019                19.1453                12.3331

                     28                     29                     30
                      E                      E                     A1
 Frequencies --   3015.3525              3015.3525              3022.8156
 Red. masses --      1.0352                 1.0352                 1.0364
 Frc consts  --      5.5459                 5.5459                 5.5797
 IR Inten    --     35.7273                35.7273                15.8545

                     31                     32                     33
                      E                      E                     A2
 Frequencies --   3073.4349              3073.4349              3082.9414
 Red. masses --      1.1006                 1.1006                 1.1027
 Frc consts  --      6.1251                 6.1251                 6.1750
 IR Inten    --      7.2371                 7.2369                 0.0000

                     34                     35                     36
                     A1                      E                      E
 Frequencies --   3083.2230              3086.7827              3086.7827
 Red. masses --      1.0994                 1.1013                 1.1013
 Frc consts  --      6.1575                 6.1827                 6.1827
 IR Inten    --     98.6747                57.0628                57.0644

 - Thermochemistry -
 -------------------
 Temperature   298.150 Kelvin.  Pressure   1.00000 Atm.
 Atom     1 has atomic number  6 and mass  12.00000

 Molecular mass:    58.07825 amu.
 Principal axes and moments of inertia in atomic units:
                           1         2         3
     Eigenvalues --   231.75531 231.75531 400.46260
           X           -0.47885   0.87790   0.00000
           Y            0.87790   0.47885   0.00000
           Z           -0.00000  -0.00000   1.00000
 This molecule is an oblate symmetric top.
 Rotational symmetry number  3.
 Rotational temperatures (Kelvin)      0.37373     0.37373     0.21628
 Rotational constants (GHZ):           7.78727     7.78727     4.50664
 Zero-point vibrational energy     343945.1 (Joules/Mol)
                                   82.20486 (Kcal/Mol)
 Warning -- explicit consideration of   6 degrees of freedom as
           vibrations may cause significant error
 Vibrational temperatures:    307.54   366.54   366.54   524.35   524.35
          (Kelvin)            620.61  1144.67  1332.23  1332.23  1379.83
                             1398.21  1398.21  1714.96  1714.96  1742.86
                             1958.25  1958.25  2015.77  2015.77  2056.46
                             2132.27  2141.88  2141.88  2166.82  2166.82
                             2177.24  4310.60  4338.42  4338.42  4349.16
                             4421.99  4421.99  4435.67  4436.07  4441.19
                             4441.19

 Zero-point correction=                           0.131002 (Hartree/Particle)
 Thermal correction to Energy=                    0.136727
 Thermal correction to Enthalpy=                  0.137671
 Thermal correction to Gibbs Free Energy=         0.104396
 Sum of electronic and zero-point Energies=           -158.394640
 Sum of electronic and thermal Energies=              -158.388915
 Sum of electronic and thermal Enthalpies=            -158.387971
 Sum of electronic and thermal Free Energies=         -158.421246

                     E (Thermal)             CV                S
                      KCal/Mol        Cal/Mol-Kelvin    Cal/Mol-Kelvin
 Total                   85.797             20.237             70.034
 Electronic               0.000              0.000              0.000
 Translational            0.889              2.981             38.098
 Rotational               0.889              2.981             22.396
 Vibrational             84.020             14.276              9.540
 Vibration     1          0.644              1.820              2.011
 Vibration     2          0.665              1.755              1.697
 Vibration     3          0.665              1.755              1.697
 Vibration     4          0.738              1.545              1.103
 Vibration     5          0.738              1.545              1.103
 Vibration     6          0.792              1.402              0.854

 Optimization completed.
    -- Stationary point found.
 Normal termination of Gaussian 16 at Fri Sep 29 13:14:33 2023.
 Gaussian 16:  ES64L-G16RevB.01 20-Dec-2017

 ---------------------------------
 # rohf/gen geom=check guess=check
 ---------------------------------

 --------------------------
 i-butane, ROHF/cc-pVTZ-F12
 --------------------------
 Structure from the checkpoint file:  "ibutane.chk"
 Charge =  0 Multiplicity = 1

                         Standard orientation:
 ---------------------------------------------------------------------
 Center     Atomic      Atomic             Coordinates (Angstroms)
 Number     Number       Type             X           Y           Z
 ---------------------------------------------------------------------
      1          6           0        0.000000    0.000000    0.371305
      2          1           0        0.000000    0.000000    1.466599
      3          6           0        0.000000    1.458003   -0.095462
      4          6           0        1.262667   -0.729001   -0.095462
      5          6           0       -1.262667   -0.729001   -0.095462
      6          1           0        0.000000    1.515531   -1.186988
      7          1           0        1.312488   -0.757765   -1.186988
      8          1           0       -1.312488   -0.757765   -1.186988
      9          1           0        0.882095    1.990712    0.264143
     10          1           0       -0.882095    1.990712    0.264143
     11          1           0        1.282959   -1.759273    0.264143
     12          1           0        2.165054   -0.231439    0.264143
     13          1           0       -2.165054   -0.231439    0.264143
     14          1           0       -1.282959   -1.759273    0.264143
 ---------------------------------------------------------------------

 SCF Done:  E(ROHF) =  -157.365157194     A.U. after   10 cycles

 The electronic state is 1-A1.
 Alpha  occ. eigenvalues --  -11.22237 -11.20654 -11.20654 -11.20651  -1.07857
 Alpha  occ. eigenvalues --   -0.92597  -0.92597  -0.76599  -0.62954  -0.58892
 Alpha  occ. eigenvalues --   -0.58892  -0.53270  -0.53270  -0.50993  -0.46211
 Alpha  occ. eigenvalues --   -0.46211  -0.45787
 Alpha virt. eigenvalues --    0.04970   0.05210   0.05210   0.06026   0.08972
 Alpha virt. eigenvalues --    0.08972   0.08979   0.09599   0.09599   0.11928
 Alpha virt. eigenvalues --    0.13051   0.13606   0.13606   0.17775   0.17775

 Mulliken charges and spin densities:
               1          2
     1  C    0.024568  -0.000000
     2  H    0.083721  -0.000000
     3  C   -0.306894  -0.000000
     4  C   -0.306894  -0.000000
     5  C   -0.306894  -0.000000
     6  H    0.096049  -0.000000
     7  H    0.096049  -0.000000
     8  H    0.096049  -0.000000
     9  H    0.087374  -0.000000
    10  H    0.087374  -0.000000
    11  H    0.087374  -0.000000
    12  H    0.087374  -0.000000
    13  H    0.087374  -0.000000
    14  H    0.087374  -0.000000
 Sum of Mulliken charges =  -0.00000  -0.00000

 Dipole moment (field-independent basis, Debye):
    X=              0.0000    Y=              0.0000    Z=              0.1267  Tot=              0.1267
 Quadrupole moment (field-independent basis, Debye-Ang):
   XX=            -29.1002   YY=            -29.1002   ZZ=            -28.3858
   XY=             -0.0000   XZ=              0.0000   YZ=             -0.0000

 Normal termination of Gaussian 16 at Fri Sep 29 13:15:22 2023.
