 Gaussian 16, Revision B.01,

 ---------------------------------------
 # b3lyp/gen opt freq CPHF(Grid=OneStep)
 ---------------------------------------

 ------------------------------
 2-methylpentane, B3LYP/pcseg-2
 ------------------------------
 Symbolic Z-matrix:
 Charge =  0 Multiplicity = 1

 SCF Done:  E(RB3LYP) =  -237.180121419     A.U. after   11 cycles
 Optimization completed.
    -- Stationary point found.
 Normal termination of Gaussian 16 at Wed Sep 27 19:17:26 2023.

 ------------------------------------------------------------------
 #N Geom=AllCheck Guess=TCheck SCRF=Check GenChk RB3LYP/ChkBas Freq
 ------------------------------------------------------------------

 Structure from the checkpoint file:  "ihexane.chk"
 ------------------------------
 2-methylpentane, B3LYP/pcseg-2
 ------------------------------
 Charge =  0 Multiplicity = 1

 SCF Done:  E(RB3LYP) =  -237.180121419     A.U. after    1 cycles

  Exact polarizability:  80.073  -7.627  74.687   0.000   0.000  73.300
 Approx polarizability: 101.918  -0.616 102.271  -0.000   0.000 101.734

                      1                      2                      3
                     A"                     A"                     A'
 Frequencies --     73.2796               107.5089               204.5795
 Red. masses --      1.6968                 2.1519                 2.4622
 Frc consts  --      0.0054                 0.0147                 0.0607
 IR Inten    --      0.0496                 0.0167                 0.0860

                      4                      5                      6
                     A"                     A"                     A'
 Frequencies --    231.6251               245.6737               248.8213
 Red. masses --      1.0644                 1.1284                 1.0678
 Frc consts  --      0.0336                 0.0401                 0.0390
 IR Inten    --      0.0016                 0.0070                 0.0924

                      7                      8                      9
                     A'                     A"                     A'
 Frequencies --    308.5889               367.7115               392.7549
 Red. masses --      2.5956                 2.0032                 2.1635
 Frc consts  --      0.1456                 0.1596                 0.1966
 IR Inten    --      0.0021                 0.0592                 0.1292

                     10                     11                     12
                     A'                     A"                     A'
 Frequencies --    552.8430               745.3145               780.4942
 Red. masses --      2.3726                 1.1055                 2.9136
 Frc consts  --      0.4272                 0.3618                 1.0457
 IR Inten    --      1.1255                 2.6304                 0.0215

                     13                     14                     15
                     A"                     A'                     A"
 Frequencies --    868.1558               889.5005               932.2154
 Red. masses --      1.2484                 1.9116                 1.1848
 Frc consts  --      0.5544                 0.8911                 0.6066
 IR Inten    --      0.0048                 2.1030                 0.3139

                     16                     17                     18
                     A"                     A'                     A"
 Frequencies --    966.9873               971.3563              1034.3066
 Red. masses --      1.4742                 2.2918                 1.4863
 Frc consts  --      0.8122                 1.2741                 0.9368
 IR Inten    --      0.0000                 1.0604                 0.1134

                     19                     20                     21
                     A'                     A'                     A'
 Frequencies --   1040.1180              1055.6384              1163.5788
 Red. masses --      1.9549                 1.5742                 1.9787
 Frc consts  --      1.2460                 1.0335                 1.5784
 IR Inten    --      0.3761                 0.1150                 2.6996

                     22                     23                     24
                     A"                     A'                     A"
 Frequencies --   1191.5986              1204.1110              1277.3567
 Red. masses --      1.8789                 1.9297                 1.2382
 Frc consts  --      1.5719                 1.6484                 1.1904
 IR Inten    --      1.5577                 2.0212                 0.4823

                     25                     26                     27
                     A'                     A"                     A'
 Frequencies --   1314.6072              1332.7120              1363.0821
 Red. masses --      1.4896                 1.1043                 1.3981
 Frc consts  --      1.5167                 1.1557                 1.5305
 IR Inten    --      0.5856                 0.0533                 3.5912

                     28                     29                     30
                     A"                     A"                     A'
 Frequencies --   1376.1126              1401.5462              1401.7170
 Red. masses --      1.3477                 1.2544                 1.3993
 Frc consts  --      1.5037                 1.4517                 1.6198
 IR Inten    --      1.9526                 7.7553                 0.2874

                     31                     32                     33
                     A'                     A'                     A'
 Frequencies --   1413.8432              1423.9842              1482.6283
 Red. masses --      1.2229                 1.2620                 1.0750
 Frc consts  --      1.4403                 1.5077                 1.3923
 IR Inten    --      0.3270                 8.9160                 1.3273

                     34                     35                     36
                     A"                     A'                     A"
 Frequencies --   1487.3913              1495.2176              1496.6781
 Red. masses --      1.0417                 1.0517                 1.0496
 Frc consts  --      1.3578                 1.3853                 1.3853
 IR Inten    --      0.6244                 1.2996                 5.4519

                     37                     38                     39
                     A"                     A'                     A'
 Frequencies --   1500.0425              1507.2238              1508.6104
 Red. masses --      1.0440                 1.0528                 1.0612
 Frc consts  --      1.3841                 1.4091                 1.4231
 IR Inten    --      3.3948                 4.6102                10.2851

                     40                     41                     42
                     A'                     A'                     A'
 Frequencies --   1513.9289              2989.0822              3004.3081
 Red. masses --      1.0773                 1.0729                 1.0684
 Frc consts  --      1.4547                 5.6481                 5.6815
 IR Inten    --      9.7831                 9.4535                45.7892

                     43                     44                     45
                     A"                     A'                     A"
 Frequencies --   3021.0467              3021.8917              3023.6311
 Red. masses --      1.0403                 1.0415                 1.0952
 Frc consts  --      5.5939                 5.6038                 5.8996
 IR Inten    --     44.8335                17.6560                 3.4856

                     46                     47                     48
                     A'                     A'                     A"
 Frequencies --   3023.9157              3028.4458              3053.7584
 Red. masses --      1.0451                 1.0438                 1.1027
 Frc consts  --      5.6303                 5.6404                 6.0585
 IR Inten    --     27.6375                33.9214                22.1087

                     49                     50                     51
                     A"                     A"                     A'
 Frequencies --   3081.1363              3082.9813              3084.5700
 Red. masses --      1.1020                 1.1021                 1.1011
 Frc consts  --      6.1638                 6.1717                 6.1725
 IR Inten    --     10.2048                48.0412                51.9535

                     52                     53                     54
                     A"                     A'                     A'
 Frequencies --   3086.0098              3086.9442              3089.0486
 Red. masses --      1.1025                 1.1010                 1.1000
 Frc consts  --      6.1860                 6.1812                 6.1841
 IR Inten    --     32.0566                11.5282               108.3291

 - Thermochemistry -
 -------------------
 Temperature   298.150 Kelvin.  Pressure   1.00000 Atm.
 Atom     1 has atomic number  6 and mass  12.00000

 Molecular mass:    86.10955 amu.
 Principal axes and moments of inertia in atomic units:
                           1         2         3
     Eigenvalues --   308.57662 986.666901101.27505
           X            0.84880   0.00000   0.52871
           Y           -0.52871   0.00000   0.84880
           Z            0.00000   1.00000  -0.00000
 This molecule is an asymmetric top.
 Rotational symmetry number  1.
 Rotational temperatures (Kelvin)      0.28069     0.08778     0.07865
 Rotational constants (GHZ):           5.84860     1.82913     1.63877
 Zero-point vibrational energy     493759.9 (Joules/Mol)
                                  118.01146 (Kcal/Mol)
 Warning -- explicit consideration of  10 degrees of freedom as
           vibrations may cause significant error
 Vibrational temperatures:    105.43   154.68   294.34   333.26   353.47
          (Kelvin)            358.00   443.99   529.05   565.09   795.42
                             1072.34  1122.96  1249.08  1279.79  1341.25
                             1391.28  1397.57  1488.14  1496.50  1518.83
                             1674.13  1714.44  1732.45  1837.83  1891.43
                             1917.48  1961.17  1979.92  2016.51  2016.76
                             2034.20  2048.80  2133.17  2140.02  2151.28
                             2153.39  2158.23  2168.56  2170.55  2178.21
                             4300.62  4322.53  4346.61  4347.83  4350.33
                             4350.74  4357.26  4393.68  4433.07  4435.72
                             4438.01  4440.08  4441.42  4444.45

 Zero-point correction=                           0.188063 (Hartree/Particle)
 Thermal correction to Energy=                    0.196398
 Thermal correction to Enthalpy=                  0.197342
 Thermal correction to Gibbs Free Energy=         0.155924
 Sum of electronic and zero-point Energies=           -236.992058
 Sum of electronic and thermal Energies=              -236.983723
 Sum of electronic and thermal Enthalpies=            -236.982779
 Sum of electronic and thermal Free Energies=         -237.024197

                     E (Thermal)             CV                S
                      KCal/Mol        Cal/Mol-Kelvin    Cal/Mol-Kelvin
 Total                  123.242             29.937             87.172
 Electronic               0.000              0.000              0.000
 Translational            0.889              2.981             39.272
 Rotational               0.889              2.981             27.308
 Vibrational            121.464             23.976             20.592
 Vibration     1          0.599              1.967              4.063
 Vibration     2          0.606              1.943              3.313
 Vibration     3          0.640              1.833              2.092
 Vibration     4          0.653              1.793              1.866
 Vibration     5          0.660              1.770              1.761
 Vibration     6          0.662              1.765              1.739
 Vibration     7          0.698              1.657              1.370
 Vibration     8          0.740              1.539              1.089
 Vibration     9          0.760              1.486              0.990
 Vibration    10          0.908              1.133              0.538

 Optimization completed.
    -- Stationary point found.
 Normal termination of Gaussian 16 at Wed Sep 27 19:48:45 2023.
 Gaussian 16:  ES64L-G16RevB.01 20-Dec-2017

 ---------------------------------
 # rohf/gen geom=check guess=check
 ---------------------------------

 ---------------------------------
 2-methylpentane, ROHF/cc-pVTZ-F12
 ---------------------------------
 Structure from the checkpoint file:  "ihexane.chk"
 Charge =  0 Multiplicity = 1

                         Standard orientation:
 ---------------------------------------------------------------------
 Center     Atomic      Atomic             Coordinates (Angstroms)
 Number     Number       Type             X           Y           Z
 ---------------------------------------------------------------------
      1          6           0        1.237355   -0.235565    0.000000
      2          6           0        1.237355   -1.102424    1.263784
      3          6           0        1.237355   -1.102424   -1.263784
      4          1           0        2.174341    0.331684    0.000000
      5          1           0        1.249932   -0.488751    2.166612
      6          1           0        2.115375   -1.750071    1.289930
      7          1           0        0.357382   -1.746348    1.310726
      8          1           0        1.249932   -0.488751   -2.166612
      9          1           0        0.357382   -1.746348   -1.310726
     10          1           0        2.115375   -1.750071   -1.289930
     11          6           0        0.108887    0.814256    0.000000
     12          1           0        0.239975    1.460988    0.873949
     13          1           0        0.239975    1.460988   -0.873949
     14          6           0       -1.326642    0.280746   -0.000000
     15          1           0       -1.487427   -0.354958   -0.873960
     16          1           0       -1.487427   -0.354958    0.873960
     17          6           0       -2.365440    1.402423   -0.000000
     18          1           0       -3.381696    1.005889   -0.000000
     19          1           0       -2.258171    2.039319   -0.880462
     20          1           0       -2.258171    2.039319    0.880462
 ---------------------------------------------------------------------

 SCF Done:  E(ROHF) =  -235.461196089     A.U. after   10 cycles

 The electronic state is 1-A'.
 Alpha  occ. eigenvalues --  -11.22079 -11.21217 -11.21034 -11.20734 -11.20566
 Alpha  occ. eigenvalues --  -11.20563  -1.09104  -1.02564  -0.92561  -0.91745
 Alpha  occ. eigenvalues --   -0.82200  -0.74517  -0.63063  -0.62512  -0.59791
 Alpha  occ. eigenvalues --   -0.56804  -0.55936  -0.53286  -0.51328  -0.50968
 Alpha  occ. eigenvalues --   -0.49478  -0.47479  -0.45162  -0.44539  -0.43758
 Alpha virt. eigenvalues --    0.04561   0.04788   0.05085   0.05132   0.07183
 Alpha virt. eigenvalues --    0.07263   0.07852   0.08648   0.08793   0.10689
 Alpha virt. eigenvalues --    0.11121   0.11254   0.11845   0.12485   0.13230

 Mulliken charges and spin densities:
               1          2
     1  C    0.065600   0.000000
     2  C   -0.366811   0.000000
     3  C   -0.366811   0.000000
     4  H    0.071086   0.000000
     5  H    0.097429   0.000000
     6  H    0.097644   0.000000
     7  H    0.100063   0.000000
     8  H    0.097429   0.000000
     9  H    0.100063   0.000000
    10  H    0.097644   0.000000
    11  C   -0.113879   0.000000
    12  H    0.072650   0.000000
    13  H    0.072650   0.000000
    14  C   -0.128509   0.000000
    15  H    0.077955   0.000000
    16  H    0.077955   0.000000
    17  C   -0.310158   0.000000
    18  H    0.084181   0.000000
    19  H    0.086909   0.000000
    20  H    0.086909   0.000000
 Sum of Mulliken charges =  -0.00000   0.00000

 Dipole moment (field-independent basis, Debye):
    X=              0.0790    Y=              0.0122    Z=             -0.0000  Tot=              0.0800
 Quadrupole moment (field-independent basis, Debye-Ang):
   XX=            -42.2651   YY=            -42.7856   ZZ=            -42.2561
   XY=              0.5722   XZ=              0.0000   YZ=              0.0000

 Normal termination of Gaussian 16 at Wed Sep 27 19:56:21 2023.
