 Gaussian 16, Revision B.01,
 Gaussian 16:  ES64L-G16RevB.01 20-Dec-2017

 --------------------
 # b3lyp/gen opt freq
 --------------------

 ------------------------------
 2-methylpentane, B3LYP/pcseg-2
 ------------------------------
 Symbolic Z-matrix:
 Charge =  0 Multiplicity = 1

 SCF Done:  E(RB3LYP) =  -237.179958757     A.U. after   11 cycles
 SCF Done:  E(RB3LYP) =  -237.180121038     A.U. after    8 cycles
 SCF Done:  E(RB3LYP) =  -237.180121419     A.U. after    6 cycles
 Optimization completed.
    -- Stationary point found.
 Normal termination of Gaussian 16 at Fri Jun 17 16:50:42 2022.

 ------------------------------------------------------------------
 #N Geom=AllCheck Guess=TCheck SCRF=Check GenChk RB3LYP/ChkBas Freq
 ------------------------------------------------------------------

 Structure from the checkpoint file:  "/wrk/irikura/Gau-25245.chk"
 ------------------------------
 2-methylpentane, B3LYP/pcseg-2
 ------------------------------
 Charge =  0 Multiplicity = 1

                         Standard orientation:
 ---------------------------------------------------------------------
 Center     Atomic      Atomic             Coordinates (Angstroms)
 Number     Number       Type             X           Y           Z
 ---------------------------------------------------------------------
      1          6           0        1.237355   -0.235565    0.000000
      2          6           0        1.237355   -1.102424    1.263784
      3          6           0        1.237355   -1.102424   -1.263784
      4          1           0        2.174341    0.331684    0.000000
      5          1           0        1.249932   -0.488751    2.166612
      6          1           0        2.115375   -1.750071    1.289930
      7          1           0        0.357382   -1.746348    1.310726
      8          1           0        1.249932   -0.488751   -2.166612
      9          1           0        0.357382   -1.746348   -1.310726
     10          1           0        2.115375   -1.750071   -1.289930
     11          6           0        0.108887    0.814256   -0.000000
     12          1           0        0.239975    1.460988    0.873949
     13          1           0        0.239975    1.460988   -0.873949
     14          6           0       -1.326642    0.280746   -0.000000
     15          1           0       -1.487427   -0.354958   -0.873960
     16          1           0       -1.487427   -0.354958    0.873960
     17          6           0       -2.365440    1.402423   -0.000000
     18          1           0       -3.381696    1.005889   -0.000000
     19          1           0       -2.258171    2.039319   -0.880462
     20          1           0       -2.258171    2.039319    0.880462
 ---------------------------------------------------------------------

 SCF Done:  E(RB3LYP) =  -237.180121419     A.U. after    1 cycles

 The electronic state is 1-A'.
 Alpha  occ. eigenvalues --  -10.17105 -10.16191 -10.16005 -10.15644 -10.15491
 Alpha  occ. eigenvalues --  -10.15490  -0.81268  -0.76079  -0.68257  -0.67590
 Alpha  occ. eigenvalues --   -0.60339  -0.54464  -0.46546  -0.46173  -0.44040
 Alpha  occ. eigenvalues --   -0.41522  -0.40721  -0.38520  -0.37183  -0.36497
 Alpha  occ. eigenvalues --   -0.35510  -0.33816  -0.31955  -0.31706  -0.30887
 Alpha virt. eigenvalues --    0.01144   0.02960   0.03650   0.03944   0.06376
 Alpha virt. eigenvalues --    0.07077   0.07145   0.08713   0.08797   0.09026
 Alpha virt. eigenvalues --    0.10588   0.10593   0.12273   0.13016   0.14249

 Mulliken charges:
               1
     1  C    0.039342
     2  C   -0.095121
     3  C   -0.095121
     4  H    0.015708
     5  H    0.028461
     6  H    0.027255
     7  H    0.021434
     8  H    0.028461
     9  H    0.021434
    10  H    0.027255
    11  C   -0.056442
    12  H    0.016329
    13  H    0.016329
    14  C   -0.011485
    15  H    0.015147
    16  H    0.015147
    17  C   -0.080978
    18  H    0.029337
    19  H    0.018755
    20  H    0.018755
 Sum of Mulliken charges =  -0.00000

 Dipole moment (field-independent basis, Debye):
    X=              0.0873    Y=              0.0125    Z=              0.0000  Tot=              0.0882
 Quadrupole moment (field-independent basis, Debye-Ang):
   XX=            -42.3506   YY=            -43.0080   ZZ=            -42.4551
   XY=              0.5243   XZ=              0.0000   YZ=              0.0000

  Exact polarizability:  80.074  -7.628  74.687   0.000   0.000  73.300
 Approx polarizability: 101.918  -0.616 102.271   0.000  -0.000 101.734

                      1                      2                      3
                     A"                     A"                     A'
 Frequencies --     73.2756               107.5072               204.5801
 Red. masses --      1.6968                 2.1519                 2.4621
 Frc consts  --      0.0054                 0.0147                 0.0607
 IR Inten    --      0.0496                 0.0167                 0.0860

                      4                      5                      6
                     A"                     A"                     A'
 Frequencies --    231.6224               245.6715               248.8192
 Red. masses --      1.0644                 1.1284                 1.0678
 Frc consts  --      0.0336                 0.0401                 0.0390
 IR Inten    --      0.0016                 0.0070                 0.0924

                      7                      8                      9
                     A'                     A"                     A'
 Frequencies --    308.5883               367.7105               392.7540
 Red. masses --      2.5956                 2.0032                 2.1635
 Frc consts  --      0.1456                 0.1596                 0.1966
 IR Inten    --      0.0021                 0.0592                 0.1293

                     10                     11                     12
                     A'                     A"                     A'
 Frequencies --    552.8423               745.3139               780.4935
 Red. masses --      2.3726                 1.1055                 2.9136
 Frc consts  --      0.4272                 0.3618                 1.0457
 IR Inten    --      1.1261                 2.6304                 0.0214

                     13                     14                     15
                     A"                     A'                     A"
 Frequencies --    868.1539               889.4992               932.2149
 Red. masses --      1.2484                 1.9116                 1.1848
 Frc consts  --      0.5544                 0.8911                 0.6066
 IR Inten    --      0.0048                 2.1032                 0.3141

                     16                     17                     18
                     A"                     A'                     A"
 Frequencies --    966.9830               971.3523              1034.3000
 Red. masses --      1.4741                 2.2918                 1.4864
 Frc consts  --      0.8121                 1.2740                 0.9369
 IR Inten    --      0.0000                 1.0615                 0.1135

                     19                     20                     21
                     A'                     A'                     A'
 Frequencies --   1040.1166              1055.6378              1163.5789
 Red. masses --      1.9550                 1.5741                 1.9787
 Frc consts  --      1.2461                 1.0335                 1.5784
 IR Inten    --      0.3761                 0.1150                 2.7010

                     22                     23                     24
                     A"                     A'                     A"
 Frequencies --   1191.5976              1204.1107              1277.3551
 Red. masses --      1.8789                 1.9297                 1.2383
 Frc consts  --      1.5719                 1.6485                 1.1904
 IR Inten    --      1.5573                 2.0209                 0.4824

                     25                     26                     27
                     A'                     A"                     A'
 Frequencies --   1314.6042              1332.7082              1363.0800
 Red. masses --      1.4896                 1.1043                 1.3981
 Frc consts  --      1.5167                 1.1556                 1.5305
 IR Inten    --      0.5866                 0.0532                 3.5899

                     28                     29                     30
                     A"                     A"                     A'
 Frequencies --   1376.1107              1401.5451              1401.7164
 Red. masses --      1.3477                 1.2544                 1.3992
 Frc consts  --      1.5037                 1.4517                 1.6198
 IR Inten    --      1.9523                 7.7563                 0.2873

                     31                     32                     33
                     A'                     A'                     A'
 Frequencies --   1413.8415              1423.9844              1482.6252
 Red. masses --      1.2229                 1.2620                 1.0750
 Frc consts  --      1.4403                 1.5077                 1.3923
 IR Inten    --      0.3266                 8.9182                 1.3281

                     34                     35                     36
                     A"                     A'                     A"
 Frequencies --   1487.3846              1495.2173              1496.6787
 Red. masses --      1.0417                 1.0517                 1.0496
 Frc consts  --      1.3578                 1.3853                 1.3853
 IR Inten    --      0.6253                 1.2993                 5.4574

                     37                     38                     39
                     A"                     A'                     A'
 Frequencies --   1500.0423              1507.2209              1508.6053
 Red. masses --      1.0440                 1.0528                 1.0612
 Frc consts  --      1.3841                 1.4091                 1.4230
 IR Inten    --      3.3895                 4.6036                10.2884

                     40                     41                     42
                     A'                     A'                     A'
 Frequencies --   1513.9299              2989.0829              3004.3035
 Red. masses --      1.0773                 1.0729                 1.0684
 Frc consts  --      1.4547                 5.6481                 5.6816
 IR Inten    --      9.7863                 9.4485                45.7850

                     43                     44                     45
                     A"                     A'                     A"
 Frequencies --   3021.0461              3021.8918              3023.6176
 Red. masses --      1.0403                 1.0415                 1.0953
 Frc consts  --      5.5939                 5.6038                 5.8995
 IR Inten    --     44.8329                17.6143                 3.4881

                     46                     47                     48
                     A'                     A'                     A"
 Frequencies --   3023.9142              3028.4427              3053.7536
 Red. masses --      1.0450                 1.0438                 1.1027
 Frc consts  --      5.6302                 5.6404                 6.0585
 IR Inten    --     27.6757                33.9161                22.0958

                     49                     50                     51
                     A"                     A"                     A'
 Frequencies --   3081.1323              3082.9768              3084.5636
 Red. masses --      1.1020                 1.1021                 1.1011
 Frc consts  --      6.1637                 6.1716                 6.1725
 IR Inten    --     10.0985                48.1493                51.9775

                     52                     53                     54
                     A"                     A'                     A'
 Frequencies --   3086.0084              3086.9448              3089.0467
 Red. masses --      1.1025                 1.1010                 1.1000
 Frc consts  --      6.1860                 6.1813                 6.1841
 IR Inten    --     32.0621                11.4866               108.3762

 - Thermochemistry -
 -------------------
 Temperature   298.150 Kelvin.  Pressure   1.00000 Atm.
 Atom     1 has atomic number  6 and mass  12.00000

 Molecular mass:    86.10955 amu.
 Principal axes and moments of inertia in atomic units:
                           1         2         3
     Eigenvalues --   308.57654 986.667031101.27525
           X            0.84881   0.00000   0.52871
           Y           -0.52871   0.00000   0.84881
           Z           -0.00000   1.00000   0.00000
 This molecule is an asymmetric top.
 Rotational symmetry number  1.
 Rotational temperatures (Kelvin)      0.28069     0.08778     0.07865
 Rotational constants (GHZ):           5.84860     1.82913     1.63877
 Zero-point vibrational energy     493759.2 (Joules/Mol)
                                  118.01129 (Kcal/Mol)
 Warning -- explicit consideration of  10 degrees of freedom as
           vibrations may cause significant error
 Vibrational temperatures:    105.43   154.68   294.35   333.25   353.47
          (Kelvin)            358.00   443.99   529.05   565.09   795.42
                             1072.34  1122.96  1249.08  1279.79  1341.25
                             1391.27  1397.56  1488.13  1496.50  1518.83
                             1674.13  1714.44  1732.45  1837.83  1891.42
                             1917.47  1961.17  1979.92  2016.51  2016.76
                             2034.20  2048.80  2133.17  2140.01  2151.28
                             2153.39  2158.23  2168.55  2170.55  2178.21
                             4300.62  4322.52  4346.61  4347.83  4350.31
                             4350.74  4357.25  4393.67  4433.06  4435.72
                             4438.00  4440.08  4441.43  4444.45

 Zero-point correction=                           0.188063 (Hartree/Particle)
 Thermal correction to Energy=                    0.196398
 Thermal correction to Enthalpy=                  0.197342
 Thermal correction to Gibbs Free Energy=         0.155924
 Sum of electronic and zero-point Energies=           -236.992058
 Sum of electronic and thermal Energies=              -236.983723
 Sum of electronic and thermal Enthalpies=            -236.982779
 Sum of electronic and thermal Free Energies=         -237.024198

                     E (Thermal)             CV                S
                      KCal/Mol        Cal/Mol-Kelvin    Cal/Mol-Kelvin
 Total                  123.242             29.937             87.173
 Electronic               0.000              0.000              0.000
 Translational            0.889              2.981             39.272
 Rotational               0.889              2.981             27.308
 Vibrational            121.464             23.976             20.593
 Vibration     1          0.599              1.967              4.063
 Vibration     2          0.606              1.943              3.313
 Vibration     3          0.640              1.833              2.092
 Vibration     4          0.653              1.793              1.866
 Vibration     5          0.660              1.770              1.761
 Vibration     6          0.662              1.765              1.739
 Vibration     7          0.698              1.657              1.370
 Vibration     8          0.740              1.539              1.089
 Vibration     9          0.760              1.486              0.990
 Vibration    10          0.908              1.133              0.538

 Optimization completed.
    -- Stationary point found.
 Normal termination of Gaussian 16 at Fri Jun 17 16:58:52 2022.
