 Gaussian 16, Revision B.01,
 Gaussian 16:  ES64L-G16RevB.01 20-Dec-2017

 --------------------
 # b3lyp/gen opt freq
 --------------------

 ------------------------------------------
 2-methylbutane (isopentane), B3LYP/pcseg-2
 ------------------------------------------
 Symbolic Z-matrix:
 Charge =  0 Multiplicity = 1

 SCF Done:  E(RB3LYP) =  -197.852885442     A.U. after   11 cycles
 SCF Done:  E(RB3LYP) =  -197.853021523     A.U. after    7 cycles
 SCF Done:  E(RB3LYP) =  -197.853021963     A.U. after    6 cycles
 SCF Done:  E(RB3LYP) =  -197.853022051     A.U. after    5 cycles
 Optimization completed.
    -- Stationary point found.
 Normal termination of Gaussian 16 at Thu Jun 16 09:18:48 2022.

 ------------------------------------------------------------------
 #N Geom=AllCheck Guess=TCheck SCRF=Check GenChk RB3LYP/ChkBas Freq
 ------------------------------------------------------------------

 Structure from the checkpoint file:  "/wrk/irikura/Gau-26886.chk"
 ------------------------------------------
 2-methylbutane (isopentane), B3LYP/pcseg-2
 ------------------------------------------
 Charge =  0 Multiplicity = 1

                         Standard orientation:
 ---------------------------------------------------------------------
 Center     Atomic      Atomic             Coordinates (Angstroms)
 Number     Number       Type             X           Y           Z
 ---------------------------------------------------------------------
      1          6           0        2.097053   -0.032307   -0.116371
      2          6           0        0.763787   -0.657426    0.294000
      3          6           0       -0.480634   -0.002736   -0.327155
      4          1           0        2.934809   -0.587236    0.308078
      5          1           0        2.186902    1.000262    0.221836
      6          1           0        2.215412   -0.036810   -1.202167
      7          1           0        0.667349   -0.632167    1.384838
      8          1           0        0.770724   -1.715462    0.016953
      9          1           0       -0.343763   -0.003829   -1.415049
     10          6           0       -0.663588    1.450619    0.121171
     11          6           0       -1.734601   -0.823912   -0.013197
     12          1           0       -0.784357    1.507923    1.206244
     13          1           0       -1.553287    1.889710   -0.333269
     14          1           0        0.186375    2.075440   -0.152704
     15          1           0       -1.915973   -0.860079    1.064062
     16          1           0       -2.620018   -0.391582   -0.482328
     17          1           0       -1.636268   -1.851598   -0.367181
 ---------------------------------------------------------------------

 SCF Done:  E(RB3LYP) =  -197.853022051     A.U. after    1 cycles

 The electronic state is 1-A.
 Alpha  occ. eigenvalues --  -10.17080 -10.16226 -10.15660 -10.15517 -10.15504
 Alpha  occ. eigenvalues --   -0.81001  -0.73323  -0.68272  -0.62564  -0.55671
 Alpha  occ. eigenvalues --   -0.46716  -0.44586  -0.43131  -0.41259  -0.38608
 Alpha  occ. eigenvalues --   -0.38223  -0.36170  -0.35067  -0.32427  -0.32197
 Alpha  occ. eigenvalues --   -0.31643
 Alpha virt. eigenvalues --    0.01413   0.03429   0.04106   0.04449   0.07124
 Alpha virt. eigenvalues --    0.07449   0.07599   0.09156   0.10022   0.10745
 Alpha virt. eigenvalues --    0.11642   0.12266   0.13655   0.14775   0.16581

 Mulliken charges:
               1
     1  C   -0.075272
     2  C   -0.029306
     3  C    0.038895
     4  H    0.030660
     5  H    0.020541
     6  H    0.020228
     7  H    0.009034
     8  H    0.015657
     9  H    0.003968
    10  C   -0.094144
    11  C   -0.086927
    12  H    0.019765
    13  H    0.026314
    14  H    0.028623
    15  H    0.019092
    16  H    0.027447
    17  H    0.025425
 Sum of Mulliken charges =  -0.00000

 Dipole moment (field-independent basis, Debye):
    X=              0.0365    Y=             -0.0444    Z=             -0.0830  Tot=              0.1010
 Quadrupole moment (field-independent basis, Debye-Ang):
   XX=            -36.2329   YY=            -35.9377   ZZ=            -35.2846
   XY=             -0.2925   XZ=              0.2510   YZ=              0.0929

  Exact polarizability:  70.721   0.429  64.049  -0.211  -0.252  57.812
 Approx polarizability:  86.086  -0.109  85.658  -0.139  -0.142  85.866

                      1                      2                      3
                      A                      A                      A
 Frequencies --     95.9944               214.7014               224.8614
 Red. masses --      1.7190                 1.0464                 1.1438
 Frc consts  --      0.0093                 0.0284                 0.0341
 IR Inten    --      0.0044                 0.0203                 0.0036

                      4                      5                      6
                      A                      A                      A
 Frequencies --    257.1306               264.0827               364.7060
 Red. masses --      1.1473                 2.0432                 2.1234
 Frc consts  --      0.0447                 0.0840                 0.1664
 IR Inten    --      0.0049                 0.0055                 0.0114

                      7                      8                      9
                      A                      A                      A
 Frequencies --    413.9345               457.4631               764.8430
 Red. masses --      1.9376                 2.4124                 1.7586
 Frc consts  --      0.1956                 0.2974                 0.6061
 IR Inten    --      0.1154                 0.1566                 1.5779

                     10                     11                     12
                      A                      A                      A
 Frequencies --    799.5597               913.0991               930.6264
 Red. masses --      1.3842                 2.1253                 1.1815
 Frc consts  --      0.5214                 1.0440                 0.6029
 IR Inten    --      0.6281                 0.4787                 0.6923

                     13                     14                     15
                      A                      A                      A
 Frequencies --    964.8154               987.2505              1026.0871
 Red. masses --      1.4551                 1.1915                 1.4884
 Frc consts  --      0.7981                 0.6842                 0.9233
 IR Inten    --      0.0763                 3.0940                 2.2491

                     16                     17                     18
                      A                      A                      A
 Frequencies --   1042.3413              1168.2815              1194.2047
 Red. masses --      2.8382                 1.9843                 1.7641
 Frc consts  --      1.8168                 1.5957                 1.4823
 IR Inten    --      0.4461                 2.4129                 1.7225

                     19                     20                     21
                      A                      A                      A
 Frequencies --   1205.1514              1299.8466              1330.9976
 Red. masses --      1.9793                 1.2443                 1.2571
 Frc consts  --      1.6937                 1.2386                 1.3121
 IR Inten    --      0.1353                 1.2535                 2.2777

                     22                     23                     24
                      A                      A                      A
 Frequencies --   1370.6705              1382.2623              1400.7230
 Red. masses --      1.3363                 1.4781                 1.2575
 Frc consts  --      1.4792                 1.6639                 1.4537
 IR Inten    --      2.0668                 0.2542                 5.6648

                     25                     26                     27
                      A                      A                      A
 Frequencies --   1413.4649              1421.9110              1481.7799
 Red. masses --      1.2340                 1.2279                 1.0613
 Frc consts  --      1.4525                 1.4627                 1.3730
 IR Inten    --      4.8653                 4.3944                 0.1627

                     28                     29                     30
                      A                      A                      A
 Frequencies --   1488.6595              1495.7015              1500.0167
 Red. masses --      1.0429                 1.0529                 1.0414
 Frc consts  --      1.3617                 1.3878                 1.3805
 IR Inten    --      0.0912                 1.6517                12.8604

                     31                     32                     33
                      A                      A                      A
 Frequencies --   1504.2133              1507.9649              1513.0191
 Red. masses --      1.0632                 1.0611                 1.0479
 Frc consts  --      1.4174                 1.4216                 1.4134
 IR Inten    --      2.9200                12.2315                 5.1733

                     34                     35                     36
                      A                      A                      A
 Frequencies --   2984.4202              3003.4485              3016.9444
 Red. masses --      1.0811                 1.0613                 1.0364
 Frc consts  --      5.6735                 5.6408                 5.5579
 IR Inten    --      8.1590                30.0985                31.5661

                     37                     38                     39
                      A                      A                      A
 Frequencies --   3022.5600              3026.6300              3034.8696
 Red. masses --      1.0383                 1.0415                 1.0954
 Frc consts  --      5.5887                 5.6211                 5.9443
 IR Inten    --     40.3699                22.2333                22.4005

                     40                     41                     42
                      A                      A                      A
 Frequencies --   3074.5027              3080.5048              3084.2346
 Red. masses --      1.0999                 1.0994                 1.1003
 Frc consts  --      6.1258                 6.1468                 6.1667
 IR Inten    --      6.3371                40.0511                66.3535

                     43                     44                     45
                      A                      A                      A
 Frequencies --   3085.9595              3091.3985              3099.4639
 Red. masses --      1.1016                 1.1012                 1.0993
 Frc consts  --      6.1809                 6.2004                 6.2224
 IR Inten    --     29.6359                57.7773                36.3975

 - Thermochemistry -
 -------------------
 Temperature   298.150 Kelvin.  Pressure   1.00000 Atm.
 Atom     1 has atomic number  6 and mass  12.00000

 Molecular mass:    72.09390 amu.
 Principal axes and moments of inertia in atomic units:
                           1         2         3
     Eigenvalues --   247.22062 540.24053 706.57006
           X            0.99997   0.00741  -0.00371
           Y           -0.00741   0.99997   0.00023
           Z            0.00371  -0.00021   0.99999
 This molecule is an asymmetric top.
 Rotational symmetry number  1.
 Rotational temperatures (Kelvin)      0.35035     0.16032     0.12258
 Rotational constants (GHZ):           7.30012     3.34063     2.55423
 Zero-point vibrational energy     418724.7 (Joules/Mol)
                                  100.07760 (Kcal/Mol)
 Warning -- explicit consideration of   8 degrees of freedom as
           vibrations may cause significant error
 Vibrational temperatures:    138.11   308.91   323.53   369.95   379.96
          (Kelvin)            524.73   595.56   658.19  1100.44  1150.39
                             1313.75  1338.96  1388.15  1420.43  1476.31
                             1499.70  1680.90  1718.19  1733.94  1870.19
                             1915.01  1972.09  1988.77  2015.33  2033.66
                             2045.81  2131.95  2141.85  2151.98  2158.19
                             2164.23  2169.63  2176.90  4293.92  4321.29
                             4340.71  4348.79  4354.65  4366.50  4423.52
                             4432.16  4437.53  4440.01  4447.83  4459.44

 Zero-point correction=                           0.159484 (Hartree/Particle)
 Thermal correction to Energy=                    0.166521
 Thermal correction to Enthalpy=                  0.167465
 Thermal correction to Gibbs Free Energy=         0.129560
 Sum of electronic and zero-point Energies=           -197.693538
 Sum of electronic and thermal Energies=              -197.686502
 Sum of electronic and thermal Enthalpies=            -197.685557
 Sum of electronic and thermal Free Energies=         -197.723462

                     E (Thermal)             CV                S
                      KCal/Mol        Cal/Mol-Kelvin    Cal/Mol-Kelvin
 Total                  104.493             25.131             79.778
 Electronic               0.000              0.000              0.000
 Translational            0.889              2.981             38.743
 Rotational               0.889              2.981             26.048
 Vibrational            102.716             19.169             14.987
 Vibration     1          0.603              1.952              3.534
 Vibration     2          0.645              1.819              2.003
 Vibration     3          0.650              1.803              1.920
 Vibration     4          0.667              1.751              1.681
 Vibration     5          0.671              1.739              1.635
 Vibration     6          0.738              1.545              1.102
 Vibration     7          0.778              1.440              0.913
 Vibration     8          0.816              1.344              0.774

 Optimization completed.
    -- Stationary point found.
 Normal termination of Gaussian 16 at Thu Jun 16 09:26:18 2022.
