 Gaussian 16, Revision B.01,

 ---------------------------------------
 # b3lyp/gen opt freq CPHF(Grid=OneStep)
 ---------------------------------------

 ------------------------------------------
 2-methylbutane (isopentane), B3LYP/pcseg-2
 ------------------------------------------
 Symbolic Z-matrix:
 Charge =  0 Multiplicity = 1

 SCF Done:  E(RB3LYP) =  -197.853022051     A.U. after   11 cycles
 Optimization completed.
    -- Stationary point found.
 Normal termination of Gaussian 16 at Sat Sep 30 11:52:40 2023.

 ------------------------------------------------------------------
 #N Geom=AllCheck Guess=TCheck SCRF=Check GenChk RB3LYP/ChkBas Freq
 ------------------------------------------------------------------

 Structure from the checkpoint file:  "ipentane.chk"
 ------------------------------------------
 2-methylbutane (isopentane), B3LYP/pcseg-2
 ------------------------------------------
 Charge =  0 Multiplicity = 1

 SCF Done:  E(RB3LYP) =  -197.853022051     A.U. after    1 cycles

  Exact polarizability:  70.722   0.429  64.050  -0.212  -0.252  57.812
 Approx polarizability:  86.086  -0.109  85.658  -0.139  -0.142  85.866

                      1                      2                      3
                      A                      A                      A
 Frequencies --     95.9921               214.7015               224.8629
 Red. masses --      1.7190                 1.0464                 1.1438
 Frc consts  --      0.0093                 0.0284                 0.0341
 IR Inten    --      0.0044                 0.0203                 0.0036

                      4                      5                      6
                      A                      A                      A
 Frequencies --    257.1307               264.0824               364.7066
 Red. masses --      1.1473                 2.0431                 2.1235
 Frc consts  --      0.0447                 0.0840                 0.1664
 IR Inten    --      0.0049                 0.0055                 0.0114

                      7                      8                      9
                      A                      A                      A
 Frequencies --    413.9336               457.4638               764.8429
 Red. masses --      1.9376                 2.4124                 1.7586
 Frc consts  --      0.1956                 0.2974                 0.6061
 IR Inten    --      0.1154                 0.1565                 1.5776

                     10                     11                     12
                      A                      A                      A
 Frequencies --    799.5593               913.0995               930.6264
 Red. masses --      1.3841                 2.1253                 1.1815
 Frc consts  --      0.5214                 1.0440                 0.6029
 IR Inten    --      0.6281                 0.4786                 0.6922

                     13                     14                     15
                      A                      A                      A
 Frequencies --    964.8136               987.2540              1026.0898
 Red. masses --      1.4551                 1.1915                 1.4884
 Frc consts  --      0.7980                 0.6842                 0.9233
 IR Inten    --      0.0764                 3.0935                 2.2488

                     16                     17                     18
                      A                      A                      A
 Frequencies --   1042.3430              1168.2831              1194.2055
 Red. masses --      2.8383                 1.9843                 1.7642
 Frc consts  --      1.8169                 1.5957                 1.4823
 IR Inten    --      0.4461                 2.4128                 1.7223

                     19                     20                     21
                      A                      A                      A
 Frequencies --   1205.1520              1299.8501              1331.0014
 Red. masses --      1.9793                 1.2443                 1.2571
 Frc consts  --      1.6937                 1.2386                 1.3121
 IR Inten    --      0.1354                 1.2538                 2.2790

                     22                     23                     24
                      A                      A                      A
 Frequencies --   1370.6723              1382.2630              1400.7207
 Red. masses --      1.3363                 1.4780                 1.2575
 Frc consts  --      1.4792                 1.6638                 1.4537
 IR Inten    --      2.0664                 0.2545                 5.6652

                     25                     26                     27
                      A                      A                      A
 Frequencies --   1413.4619              1421.9100              1481.7775
 Red. masses --      1.2340                 1.2279                 1.0613
 Frc consts  --      1.4525                 1.4627                 1.3730
 IR Inten    --      4.8686                 4.3936                 0.1631

                     28                     29                     30
                      A                      A                      A
 Frequencies --   1488.6586              1495.6992              1500.0154
 Red. masses --      1.0429                 1.0529                 1.0414
 Frc consts  --      1.3616                 1.3878                 1.3805
 IR Inten    --      0.0928                 1.6530                12.8611

                     31                     32                     33
                      A                      A                      A
 Frequencies --   1504.2121              1507.9631              1513.0199
 Red. masses --      1.0632                 1.0611                 1.0479
 Frc consts  --      1.4174                 1.4216                 1.4134
 IR Inten    --      2.9188                12.2387                 5.1650

                     34                     35                     36
                      A                      A                      A
 Frequencies --   2984.4199              3003.4460              3016.9411
 Red. masses --      1.0811                 1.0613                 1.0364
 Frc consts  --      5.6735                 5.6408                 5.5579
 IR Inten    --      8.1595                30.1061                31.5583

                     37                     38                     39
                      A                      A                      A
 Frequencies --   3022.5580              3026.6311              3034.8706
 Red. masses --      1.0383                 1.0415                 1.0954
 Frc consts  --      5.5887                 5.6211                 5.9443
 IR Inten    --     40.3780                22.2121                22.3920

                     40                     41                     42
                      A                      A                      A
 Frequencies --   3074.5043              3080.5083              3084.2361
 Red. masses --      1.0999                 1.0994                 1.1003
 Frc consts  --      6.1258                 6.1468                 6.1667
 IR Inten    --      6.3512                40.0901                66.3751

                     43                     44                     45
                      A                      A                      A
 Frequencies --   3085.9624              3091.3763              3099.4640
 Red. masses --      1.1016                 1.1012                 1.0993
 Frc consts  --      6.1810                 6.2003                 6.2224
 IR Inten    --     29.4801                57.8909                36.4050

 - Thermochemistry -
 -------------------
 Temperature   298.150 Kelvin.  Pressure   1.00000 Atm.
 Atom     1 has atomic number  6 and mass  12.00000

 Molecular mass:    72.09390 amu.
 Principal axes and moments of inertia in atomic units:
                           1         2         3
     Eigenvalues --   247.22062 540.24061 706.57016
           X            0.99997   0.00741  -0.00371
           Y           -0.00741   0.99997   0.00023
           Z            0.00371  -0.00021   0.99999
 This molecule is an asymmetric top.
 Rotational symmetry number  1.
 Rotational temperatures (Kelvin)      0.35035     0.16032     0.12258
 Rotational constants (GHZ):           7.30012     3.34062     2.55423
 Zero-point vibrational energy     418724.6 (Joules/Mol)
                                  100.07758 (Kcal/Mol)
 Warning -- explicit consideration of   8 degrees of freedom as
           vibrations may cause significant error
 Vibrational temperatures:    138.11   308.91   323.53   369.95   379.96
          (Kelvin)            524.73   595.56   658.19  1100.44  1150.39
                             1313.75  1338.96  1388.15  1420.44  1476.31
                             1499.70  1680.90  1718.20  1733.94  1870.19
                             1915.01  1972.09  1988.77  2015.32  2033.66
                             2045.81  2131.95  2141.85  2151.98  2158.19
                             2164.23  2169.62  2176.90  4293.91  4321.29
                             4340.71  4348.79  4354.65  4366.50  4423.53
                             4432.16  4437.53  4440.01  4447.80  4459.44

 Zero-point correction=                           0.159484 (Hartree/Particle)
 Thermal correction to Energy=                    0.166520
 Thermal correction to Enthalpy=                  0.167465
 Thermal correction to Gibbs Free Energy=         0.129560
 Sum of electronic and zero-point Energies=           -197.693538
 Sum of electronic and thermal Energies=              -197.686502
 Sum of electronic and thermal Enthalpies=            -197.685557
 Sum of electronic and thermal Free Energies=         -197.723463

                     E (Thermal)             CV                S
                      KCal/Mol        Cal/Mol-Kelvin    Cal/Mol-Kelvin
 Total                  104.493             25.131             79.778
 Electronic               0.000              0.000              0.000
 Translational            0.889              2.981             38.743
 Rotational               0.889              2.981             26.048
 Vibrational            102.716             19.169             14.987
 Vibration     1          0.603              1.952              3.534
 Vibration     2          0.645              1.819              2.003
 Vibration     3          0.650              1.803              1.920
 Vibration     4          0.667              1.751              1.681
 Vibration     5          0.671              1.739              1.635
 Vibration     6          0.738              1.545              1.102
 Vibration     7          0.778              1.440              0.913
 Vibration     8          0.816              1.344              0.774

 Optimization completed.
    -- Stationary point found.
 Normal termination of Gaussian 16 at Sat Sep 30 12:20:56 2023.
 Gaussian 16:  ES64L-G16RevB.01 20-Dec-2017

 ---------------------------------
 # rohf/gen geom=check guess=check
 ---------------------------------

 ---------------------------------------------
 2-methylbutane (isopentane), ROHF/cc-pVTZ-F12
 ---------------------------------------------
 Structure from the checkpoint file:  "ipentane.chk"
 Charge =  0 Multiplicity = 1

                         Standard orientation:
 ---------------------------------------------------------------------
 Center     Atomic      Atomic             Coordinates (Angstroms)
 Number     Number       Type             X           Y           Z
 ---------------------------------------------------------------------
      1          6           0        2.097053   -0.032307   -0.116371
      2          6           0        0.763787   -0.657426    0.294000
      3          6           0       -0.480634   -0.002736   -0.327155
      4          1           0        2.934809   -0.587236    0.308078
      5          1           0        2.186902    1.000262    0.221836
      6          1           0        2.215412   -0.036810   -1.202167
      7          1           0        0.667349   -0.632167    1.384838
      8          1           0        0.770724   -1.715462    0.016953
      9          1           0       -0.343763   -0.003829   -1.415049
     10          6           0       -0.663588    1.450619    0.121171
     11          6           0       -1.734601   -0.823912   -0.013197
     12          1           0       -0.784357    1.507923    1.206244
     13          1           0       -1.553287    1.889710   -0.333269
     14          1           0        0.186375    2.075440   -0.152704
     15          1           0       -1.915973   -0.860079    1.064062
     16          1           0       -2.620018   -0.391582   -0.482328
     17          1           0       -1.636268   -1.851598   -0.367181
 ---------------------------------------------------------------------

 SCF Done:  E(ROHF) =  -196.413125265     A.U. after   10 cycles

 The electronic state is 1-A.
 Alpha  occ. eigenvalues --  -11.22047 -11.21260 -11.20741 -11.20597 -11.20575
 Alpha  occ. eigenvalues --   -1.08755  -0.99039  -0.92568  -0.85223  -0.75942
 Alpha  occ. eigenvalues --   -0.63254  -0.60497  -0.58753  -0.56455  -0.53345
 Alpha  occ. eigenvalues --   -0.52919  -0.50323  -0.49086  -0.45578  -0.45316
 Alpha  occ. eigenvalues --   -0.44571
 Alpha virt. eigenvalues --    0.04681   0.04897   0.05199   0.05678   0.07307
 Alpha virt. eigenvalues --    0.08429   0.08678   0.09014   0.09327   0.11252
 Alpha virt. eigenvalues --    0.11590   0.11830   0.12602   0.13322   0.14449

 Mulliken charges and spin densities:
               1          2
     1  C   -0.332473   0.000000
     2  C   -0.112689   0.000000
     3  C    0.066657   0.000000
     4  H    0.090331   0.000000
     5  H    0.087557   0.000000
     6  H    0.092348   0.000000
     7  H    0.079300   0.000000
     8  H    0.069207   0.000000
     9  H    0.077866   0.000000
    10  C   -0.348502   0.000000
    11  C   -0.343585   0.000000
    12  H    0.105719   0.000000
    13  H    0.093554   0.000000
    14  H    0.089058   0.000000
    15  H    0.103528   0.000000
    16  H    0.092665   0.000000
    17  H    0.089460   0.000000
 Sum of Mulliken charges =  -0.00000   0.00000

 Dipole moment (field-independent basis, Debye):
    X=              0.0321    Y=             -0.0384    Z=             -0.0744  Tot=              0.0897
 Quadrupole moment (field-independent basis, Debye-Ang):
   XX=            -36.1319   YY=            -35.7632   ZZ=            -35.0655
   XY=             -0.2709   XZ=              0.2271   YZ=              0.0916

 Normal termination of Gaussian 16 at Sat Sep 30 12:28:55 2023.
