 Gaussian 16, Revision B.01,

 ---------------------------------------
 # b3lyp/gen opt freq CPHF(Grid=OneStep)
 ---------------------------------------

 -------------------------
 iso-propyl, B3LYP/pcseg-2
 -------------------------
 Symbolic Z-matrix:
 Charge =  0 Multiplicity = 2

 SCF Done:  E(UB3LYP) =  -118.530048609     A.U. after   12 cycles
 Optimization completed.
    -- Stationary point found.
 Normal termination of Gaussian 16 at Fri Sep 29 17:41:30 2023.

 ------------------------------------------------------------------
 #N Geom=AllCheck Guess=TCheck SCRF=Check GenChk UB3LYP/ChkBas Freq
 ------------------------------------------------------------------

 Structure from the checkpoint file:  "iPr.chk"
 -------------------------
 iso-propyl, B3LYP/pcseg-2
 -------------------------
 Charge =  0 Multiplicity = 2

 SCF Done:  E(UB3LYP) =  -118.530048609     A.U. after    1 cycles

  Exact polarizability:  34.048  -0.283  38.630  -0.000   0.000  44.820
 Approx polarizability:  46.928  -0.395  51.845  -0.000   0.000  52.653

                      1                      2                      3
                     A'                     A"                     A'
 Frequencies --    104.1588               107.2482               347.8297
 Red. masses --      1.1187                 1.0218                 1.5700
 Frc consts  --      0.0072                 0.0069                 0.1119
 IR Inten    --      1.3355                 0.0126                18.1738

                      4                      5                      6
                     A'                     A'                     A"
 Frequencies --    386.4111               885.4629               940.7851
 Red. masses --      1.6909                 2.6514                 1.2053
 Frc consts  --      0.1488                 1.2248                 0.6285
 IR Inten    --      9.8115                 1.9932                 0.0659

                      7                      8                      9
                     A"                     A'                     A"
 Frequencies --    948.5644              1026.8054              1145.5274
 Red. masses --      1.1987                 1.4440                 2.0691
 Frc consts  --      0.6355                 0.8970                 1.5997
 IR Inten    --      0.7927                 0.0320                 0.3160

                     10                     11                     12
                     A'                     A"                     A"
 Frequencies --   1180.4665              1370.8768              1408.3256
 Red. masses --      1.8831                 1.3372                 1.4541
 Frc consts  --      1.5460                 1.4807                 1.6992
 IR Inten    --      2.1288                 2.9955                 6.8909

                     13                     14                     15
                     A'                     A"                     A"
 Frequencies --   1412.6291              1466.3407              1475.0153
 Red. masses --      1.2000                 1.0728                 1.0398
 Frc consts  --      1.4109                 1.3591                 1.3329
 IR Inten    --      4.3380                 0.5850                 1.3171

                     16                     17                     18
                     A'                     A'                     A"
 Frequencies --   1476.6449              1489.5135              2938.5341
 Red. masses --      1.0487                 1.0525                 1.0601
 Frc consts  --      1.3473                 1.3758                 5.3936
 IR Inten    --     14.8050                 4.7164                24.9623

                     19                     20                     21
                     A'                     A"                     A'
 Frequencies --   2942.4306              3009.6791              3010.6281
 Red. masses --      1.0626                 1.0762                 1.0729
 Frc consts  --      5.4202                 5.7433                 5.7297
 IR Inten    --     57.8458                 7.8729                50.1387

                     22                     23                     24
                     A'                     A"                     A'
 Frequencies --   3088.3175              3089.5486              3173.8032
 Red. masses --      1.0933                 1.0943                 1.0888
 Frc consts  --      6.1437                 6.1542                 6.4620
 IR Inten    --     16.0360                29.1223                23.8216

 - Thermochemistry -
 -------------------
 Temperature   298.150 Kelvin.  Pressure   1.00000 Atm.
 Atom     1 has atomic number  6 and mass  12.00000

 Molecular mass:    43.05478 amu.
 Principal axes and moments of inertia in atomic units:
                           1         2         3
     Eigenvalues --    48.00317 215.62440 241.40338
           X            0.00000   0.03785   0.99928
           Y            0.00000   0.99928  -0.03785
           Z            1.00000  -0.00000  -0.00000
 This molecule is an asymmetric top.
 Rotational symmetry number  1.
 Rotational temperatures (Kelvin)      1.80434     0.40169     0.35879
 Rotational constants (GHZ):          37.59629     8.36984     7.47604
 Zero-point vibrational energy     229835.8 (Joules/Mol)
                                   54.93208 (Kcal/Mol)
 Warning -- explicit consideration of   4 degrees of freedom as
           vibrations may cause significant error
 Vibrational temperatures:    149.86   154.31   500.45   555.96  1273.98
          (Kelvin)           1353.58  1364.77  1477.34  1648.16  1698.43
                             1972.39  2026.27  2032.46  2109.74  2122.22
                             2124.56  2143.08  4227.90  4233.50  4330.26
                             4331.62  4443.40  4445.17  4566.39

 Zero-point correction=                           0.087540 (Hartree/Particle)
 Thermal correction to Energy=                    0.092771
 Thermal correction to Enthalpy=                  0.093715
 Thermal correction to Gibbs Free Energy=         0.060183
 Sum of electronic and zero-point Energies=           -118.442509
 Sum of electronic and thermal Energies=              -118.437278
 Sum of electronic and thermal Enthalpies=            -118.436333
 Sum of electronic and thermal Free Energies=         -118.469866

                     E (Thermal)             CV                S
                      KCal/Mol        Cal/Mol-Kelvin    Cal/Mol-Kelvin
 Total                   58.215             15.791             70.575
 Electronic               0.000              0.000              1.377
 Translational            0.889              2.981             37.206
 Rotational               0.889              2.981             22.440
 Vibrational             56.437              9.829              9.552
 Vibration     1          0.605              1.946              3.375
 Vibration     2          0.606              1.943              3.318
 Vibration     3          0.725              1.580              1.176
 Vibration     4          0.755              1.499              1.014

 Optimization completed.
    -- Stationary point found.
 Normal termination of Gaussian 16 at Fri Sep 29 17:47:34 2023.
 Gaussian 16:  ES64L-G16RevB.01 20-Dec-2017

 ---------------------------------
 # rohf/gen geom=check guess=check
 ---------------------------------

 ----------------------------
 iso-propyl, ROHF/cc-pVTZ-F12
 ----------------------------
 Structure from the checkpoint file:  "iPr.chk"
 Charge =  0 Multiplicity = 2

                         Standard orientation:
 ---------------------------------------------------------------------
 Center     Atomic      Atomic             Coordinates (Angstroms)
 Number     Number       Type             X           Y           Z
 ---------------------------------------------------------------------
      1          6           0       -0.008712    0.534881   -0.000000
      2          6           0       -0.008712   -0.197098    1.293644
      3          6           0       -0.008712   -0.197098   -1.293644
      4          1           0        0.174556    1.600986   -0.000000
      5          1           0       -0.777665   -0.976774    1.314782
      6          1           0       -0.777665   -0.976774   -1.314782
      7          1           0        0.946673   -0.712990    1.474368
      8          1           0       -0.177873    0.467218    2.140945
      9          1           0        0.946673   -0.712990   -1.474368
     10          1           0       -0.177873    0.467218   -2.140945
 ---------------------------------------------------------------------

 SCF Done:  E(ROHF) =  -117.681088967     A.U. after   16 cycles

 The electronic state is 2-A'.
 Alpha  occ. eigenvalues --  -11.21418 -11.21411 -11.21103  -1.03626  -0.93493
 Alpha  occ. eigenvalues --   -0.75950  -0.61349  -0.56650  -0.55857  -0.52834
 Alpha  occ. eigenvalues --   -0.49529  -0.48669  -0.05054
 Alpha virt. eigenvalues --    0.05167   0.05694   0.05866   0.07358   0.09098
 Alpha virt. eigenvalues --    0.09399   0.09781   0.11308   0.11505   0.12990
 Alpha virt. eigenvalues --    0.17877   0.18845   0.20971   0.22475   0.24021

 Mulliken charges and spin densities:
               1          2
     1  C   -0.039556   0.902518
     2  C   -0.306659   0.009092
     3  C   -0.306659   0.009092
     4  H    0.132570   0.022153
     5  H    0.086756   0.007367
     6  H    0.086756   0.007367
     7  H    0.078056   0.020323
     8  H    0.095340   0.000882
     9  H    0.078056   0.020323
    10  H    0.095340   0.000882
 Sum of Mulliken charges =  -0.00000   1.00000

 Dipole moment (field-independent basis, Debye):
    X=              0.1296    Y=             -0.0604    Z=             -0.0000  Tot=              0.1430
 Quadrupole moment (field-independent basis, Debye-Ang):
   XX=            -21.7195   YY=            -20.8117   ZZ=            -21.0365
   XY=              0.2934   XZ=              0.0000   YZ=             -0.0000

 Normal termination of Gaussian 16 at Fri Sep 29 17:48:35 2023.
