 Gaussian 16, Revision B.01,
 Gaussian 16:  ES64L-G16RevB.01 20-Dec-2017

 --------------------
 # b3lyp/gen opt freq
 --------------------

 -------------------------
 iso-propyl, B3LYP/pcseg-2
 -------------------------
 Symbolic Z-matrix:
 Charge =  0 Multiplicity = 2

 SCF Done:  E(UB3LYP) =  -118.529909935     A.U. after   12 cycles
 SCF Done:  E(UB3LYP) =  -118.530004362     A.U. after    9 cycles
 SCF Done:  E(UB3LYP) =  -118.530010205     A.U. after    7 cycles
 SCF Done:  E(UB3LYP) =  -118.530032999     A.U. after   10 cycles
 SCF Done:  E(UB3LYP) =  -118.530043524     A.U. after    9 cycles
 SCF Done:  E(UB3LYP) =  -118.530048509     A.U. after    9 cycles
 SCF Done:  E(UB3LYP) =  -118.530048600     A.U. after    7 cycles
 SCF Done:  E(UB3LYP) =  -118.530048609     A.U. after    6 cycles
 Optimization completed.
    -- Stationary point found.
 Normal termination of Gaussian 16 at Wed Jun 15 13:47:57 2022.

 ------------------------------------------------------------------
 #N Geom=AllCheck Guess=TCheck SCRF=Check GenChk UB3LYP/ChkBas Freq
 ------------------------------------------------------------------

 Structure from the checkpoint file:  "/wrk/irikura/Gau-2890.chk"
 -------------------------
 iso-propyl, B3LYP/pcseg-2
 -------------------------
 Charge =  0 Multiplicity = 2

                         Standard orientation:
 ---------------------------------------------------------------------
 Center     Atomic      Atomic             Coordinates (Angstroms)
 Number     Number       Type             X           Y           Z
 ---------------------------------------------------------------------
      1          6           0       -0.008712    0.534881   -0.000000
      2          6           0       -0.008712   -0.197098    1.293644
      3          6           0       -0.008712   -0.197098   -1.293644
      4          1           0        0.174556    1.600986   -0.000000
      5          1           0       -0.777665   -0.976774    1.314782
      6          1           0       -0.777665   -0.976774   -1.314782
      7          1           0        0.946673   -0.712990    1.474368
      8          1           0       -0.177873    0.467218    2.140945
      9          1           0        0.946673   -0.712990   -1.474368
     10          1           0       -0.177873    0.467218   -2.140945
 ---------------------------------------------------------------------

 SCF Done:  E(UB3LYP) =  -118.530048609     A.U. after    1 cycles

 The electronic state is 2-A'.
 Alpha  occ. eigenvalues --  -10.17498 -10.16334 -10.16334  -0.78474  -0.69360
 Alpha  occ. eigenvalues --   -0.57353  -0.45617  -0.43357  -0.41341  -0.38909
 Alpha  occ. eigenvalues --   -0.35925  -0.35228  -0.18705
 Alpha virt. eigenvalues --    0.01696   0.04517   0.04563   0.07082   0.08630
 Alpha virt. eigenvalues --    0.09568   0.11037   0.13380   0.15783   0.17968
 Alpha virt. eigenvalues --    0.18698   0.19824   0.21334   0.24805   0.27597

  Beta  occ. eigenvalues --  -10.16423 -10.16423 -10.16055  -0.76795  -0.69118
  Beta  occ. eigenvalues --   -0.55256  -0.45196  -0.41617  -0.40767  -0.38232
  Beta  occ. eigenvalues --   -0.35597  -0.34697
  Beta virt. eigenvalues --   -0.04673   0.01774   0.04565   0.04760   0.07252
  Beta virt. eigenvalues --    0.08807   0.09631   0.11187   0.13692   0.15947
  Beta virt. eigenvalues --    0.18091   0.18845   0.21383   0.21476   0.26231

 Mulliken charges and spin densities:
               1          2
     1  C   -0.108520   0.990365
     2  C   -0.052977  -0.071109
     3  C   -0.052977  -0.071109
     4  H    0.050447  -0.037125
     5  H    0.023774   0.027753
     6  H    0.023774   0.027753
     7  H    0.026056   0.061904
     8  H    0.032184   0.004831
     9  H    0.026056   0.061904
    10  H    0.032184   0.004831
 Sum of Mulliken charges =   0.00000   1.00000

 Dipole moment (field-independent basis, Debye):
    X=              0.1452    Y=             -0.1227    Z=              0.0000  Tot=              0.1901
 Quadrupole moment (field-independent basis, Debye-Ang):
   XX=            -21.8983   YY=            -20.9742   ZZ=            -20.9728
   XY=              0.2982   XZ=              0.0000   YZ=              0.0000

  Exact polarizability:  34.049  -0.283  38.630  -0.000   0.000  44.821
 Approx polarizability:  46.928  -0.395  51.845   0.000  -0.000  52.653

                      1                      2                      3
                     A'                     A"                     A'
 Frequencies --    104.2147               107.2520               347.8571
 Red. masses --      1.1187                 1.0218                 1.5703
 Frc consts  --      0.0072                 0.0069                 0.1119
 IR Inten    --      1.3336                 0.0126                18.1624

                      4                      5                      6
                     A'                     A'                     A"
 Frequencies --    386.4271               885.4641               940.7826
 Red. masses --      1.6905                 2.6514                 1.2053
 Frc consts  --      0.1487                 1.2248                 0.6285
 IR Inten    --      9.8254                 1.9930                 0.0661

                      7                      8                      9
                     A"                     A'                     A"
 Frequencies --    948.5575              1026.8059              1145.5270
 Red. masses --      1.1987                 1.4440                 2.0691
 Frc consts  --      0.6354                 0.8970                 1.5997
 IR Inten    --      0.7926                 0.0320                 0.3161

                     10                     11                     12
                     A'                     A"                     A"
 Frequencies --   1180.4667              1370.8771              1408.3251
 Red. masses --      1.8831                 1.3372                 1.4541
 Frc consts  --      1.5460                 1.4807                 1.6992
 IR Inten    --      2.1289                 2.9957                 6.8907

                     13                     14                     15
                     A'                     A"                     A"
 Frequencies --   1412.6292              1466.3421              1475.0128
 Red. masses --      1.2000                 1.0729                 1.0398
 Frc consts  --      1.4109                 1.3591                 1.3329
 IR Inten    --      4.3382                 0.5840                 1.3175

                     16                     17                     18
                     A'                     A'                     A"
 Frequencies --   1476.6442              1489.5127              2938.5288
 Red. masses --      1.0487                 1.0525                 1.0601
 Frc consts  --      1.3473                 1.3758                 5.3936
 IR Inten    --     14.8051                 4.7162                24.9551

                     19                     20                     21
                     A'                     A"                     A'
 Frequencies --   2942.4327              3009.6914              3010.6327
 Red. masses --      1.0626                 1.0761                 1.0729
 Frc consts  --      5.4203                 5.7434                 5.7297
 IR Inten    --     57.8369                 7.8798                50.1331

                     22                     23                     24
                     A'                     A"                     A'
 Frequencies --   3088.3160              3089.5484              3173.7928
 Red. masses --      1.0933                 1.0943                 1.0888
 Frc consts  --      6.1437                 6.1542                 6.4620
 IR Inten    --     16.0336                29.1175                23.8235

 - Thermochemistry -
 -------------------
 Temperature   298.150 Kelvin.  Pressure   1.00000 Atm.
 Atom     1 has atomic number  6 and mass  12.00000

 Molecular mass:    43.05478 amu.
 Principal axes and moments of inertia in atomic units:
                           1         2         3
     Eigenvalues --    48.00316 215.62437 241.40335
           X            0.00000   0.03785   0.99928
           Y            0.00000   0.99928  -0.03785
           Z            1.00000  -0.00000  -0.00000
 This molecule is an asymmetric top.
 Rotational symmetry number  1.
 Rotational temperatures (Kelvin)      1.80434     0.40169     0.35879
 Rotational constants (GHZ):          37.59630     8.36984     7.47604
 Zero-point vibrational energy     229836.4 (Joules/Mol)
                                   54.93221 (Kcal/Mol)
 Warning -- explicit consideration of   4 degrees of freedom as
           vibrations may cause significant error
 Vibrational temperatures:    149.94   154.31   500.49   555.98  1273.99
          (Kelvin)           1353.58  1364.76  1477.34  1648.16  1698.43
                             1972.39  2026.27  2032.46  2109.74  2122.21
                             2124.56  2143.08  4227.89  4233.50  4330.27
                             4331.63  4443.40  4445.17  4566.38

 Zero-point correction=                           0.087540 (Hartree/Particle)
 Thermal correction to Energy=                    0.092771
 Thermal correction to Enthalpy=                  0.093715
 Thermal correction to Gibbs Free Energy=         0.060183
 Sum of electronic and zero-point Energies=           -118.442509
 Sum of electronic and thermal Energies=              -118.437277
 Sum of electronic and thermal Enthalpies=            -118.436333
 Sum of electronic and thermal Free Energies=         -118.469865

                     E (Thermal)             CV                S
                      KCal/Mol        Cal/Mol-Kelvin    Cal/Mol-Kelvin
 Total                   58.215             15.791             70.574
 Electronic               0.000              0.000              1.377
 Translational            0.889              2.981             37.206
 Rotational               0.889              2.981             22.440
 Vibrational             56.437              9.829              9.551
 Vibration     1          0.605              1.946              3.374
 Vibration     2          0.606              1.943              3.318
 Vibration     3          0.725              1.580              1.176
 Vibration     4          0.755              1.499              1.014

 Optimization completed.
    -- Stationary point found.
 Normal termination of Gaussian 16 at Wed Jun 15 13:49:21 2022.
