 Gaussian 16, Revision B.01,
 Gaussian 16:  ES64L-G16RevB.01 20-Dec-2017

 --------------------
 # b3lyp/gen opt freq
 --------------------

 -----------------------------
 isopropylamine, B3LYP/pcseg-2
 -----------------------------
 Symbolic Z-matrix:
 Charge =  0 Multiplicity = 1

 SCF Done:  E(RB3LYP) =  -174.569451837     A.U. after   11 cycles
 SCF Done:  E(RB3LYP) =  -174.569653076     A.U. after    9 cycles
 SCF Done:  E(RB3LYP) =  -174.569664737     A.U. after    8 cycles
 SCF Done:  E(RB3LYP) =  -174.569665991     A.U. after    7 cycles
 Optimization completed.
    -- Stationary point found.
 Normal termination of Gaussian 16 at Thu Jun 16 10:05:47 2022.

 ------------------------------------------------------------------
 #N Geom=AllCheck Guess=TCheck SCRF=Check GenChk RB3LYP/ChkBas Freq
 ------------------------------------------------------------------

 Structure from the checkpoint file:  "/wrk/irikura/Gau-31407.chk"
 -----------------------------
 isopropylamine, B3LYP/pcseg-2
 -----------------------------
 Charge =  0 Multiplicity = 1

                         Standard orientation:
 ---------------------------------------------------------------------
 Center     Atomic      Atomic             Coordinates (Angstroms)
 Number     Number       Type             X           Y           Z
 ---------------------------------------------------------------------
      1          6           0        0.291590    0.213683    0.000000
      2          7           0       -0.907206    1.063422    0.000000
      3          1           0        1.215084    0.811985   -0.000000
      4          6           0        0.291590   -0.642743    1.262559
      5          6           0        0.291590   -0.642743   -1.262559
      6          1           0       -0.927366    1.663430   -0.815233
      7          1           0       -0.927366    1.663430    0.815233
      8          1           0       -0.597023   -1.274948    1.291567
      9          1           0       -0.597023   -1.274948   -1.291567
     10          1           0        1.175618   -1.280443    1.300110
     11          1           0        1.175618   -1.280443   -1.300110
     12          1           0        0.292134   -0.020602    2.159996
     13          1           0        0.292134   -0.020602   -2.159996
 ---------------------------------------------------------------------

 SCF Done:  E(RB3LYP) =  -174.569665991     A.U. after    1 cycles

 The electronic state is 1-A'.
 Alpha  occ. eigenvalues --  -14.29146 -10.19921 -10.15647 -10.15647  -0.88624
 Alpha  occ. eigenvalues --   -0.75174  -0.68759  -0.57318  -0.48493  -0.48278
 Alpha  occ. eigenvalues --   -0.44065  -0.39004  -0.38080  -0.36509  -0.34864
 Alpha  occ. eigenvalues --   -0.34042  -0.24291
 Alpha virt. eigenvalues --    0.00760   0.04318   0.04509   0.05401   0.07484
 Alpha virt. eigenvalues --    0.07581   0.08511   0.11815   0.12784   0.12889
 Alpha virt. eigenvalues --    0.15571   0.16639   0.18411   0.19726   0.21792

 Mulliken charges:
               1
     1  C    0.162218
     2  N   -0.356794
     3  H    0.008481
     4  C   -0.073936
     5  C   -0.073936
     6  H    0.100834
     7  H    0.100834
     8  H    0.029908
     9  H    0.029908
    10  H    0.020345
    11  H    0.020345
    12  H    0.015897
    13  H    0.015897
 Sum of Mulliken charges =  -0.00000

 Dipole moment (field-independent basis, Debye):
    X=              0.9906    Y=              0.8111    Z=              0.0000  Tot=              1.2803
 Quadrupole moment (field-independent basis, Debye-Ang):
   XX=            -30.4634   YY=            -25.4168   ZZ=            -26.8932
   XY=             -0.5875   XZ=              0.0000   YZ=             -0.0000

  Exact polarizability:  46.464  -2.844  48.605   0.000   0.000  51.367
 Approx polarizability:  64.846  -1.495  64.506   0.000   0.000  65.109

                      1                      2                      3
                     A"                     A'                     A"
 Frequencies --    217.5766               261.0675               279.4109
 Red. masses --      1.0269                 1.0647                 1.0507
 Frc consts  --      0.0286                 0.0428                 0.0483
 IR Inten    --      6.4327                 0.2215                30.4194

                      4                      5                      6
                     A'                     A"                     A'
 Frequencies --    363.5931               405.4591               475.5503
 Red. masses --      2.1344                 2.4207                 2.1366
 Frc consts  --      0.1662                 0.2345                 0.2847
 IR Inten    --      0.1370                 6.6149                11.4073

                      7                      8                      9
                     A'                     A'                     A"
 Frequencies --    814.2371               827.5742               933.1252
 Red. masses --      2.4745                 1.3765                 1.2046
 Frc consts  --      0.9666                 0.5554                 0.6180
 IR Inten    --     21.2950               110.9664                 0.1216

                     10                     11                     12
                     A"                     A'                     A"
 Frequencies --    962.9823               988.2324              1030.8951
 Red. masses --      1.4600                 1.8326                 1.5525
 Frc consts  --      0.7977                 1.0545                 0.9721
 IR Inten    --      0.0882                 5.1990                 1.4173

                     13                     14                     15
                     A'                     A'                     A"
 Frequencies --   1157.4685              1201.1756              1264.0919
 Red. masses --      1.9045                 1.9197                 1.2544
 Frc consts  --      1.5033                 1.6319                 1.1809
 IR Inten    --     13.7353                 7.2078                 0.3389

                     16                     17                     18
                     A'                     A"                     A"
 Frequencies --   1372.9816              1392.6764              1410.2876
 Red. masses --      1.3191                 1.2504                 1.5608
 Frc consts  --      1.4650                 1.4289                 1.8290
 IR Inten    --     22.3528                 0.0808                16.6985

                     19                     20                     21
                     A'                     A"                     A"
 Frequencies --   1417.1597              1486.0484              1488.7213
 Red. masses --      1.2437                 1.0444                 1.0686
 Frc consts  --      1.4716                 1.3589                 1.3953
 IR Inten    --     12.2928                 0.5858                 0.3559

                     22                     23                     24
                     A'                     A'                     A'
 Frequencies --   1495.3239              1507.4251              1654.8647
 Red. masses --      1.0505                 1.0532                 1.0940
 Frc consts  --      1.3840                 1.4100                 1.7652
 IR Inten    --      5.5803                 8.1943                34.4245

                     25                     26                     27
                     A'                     A"                     A'
 Frequencies --   2926.2862              3023.7647              3028.3623
 Red. masses --      1.0821                 1.0345                 1.0358
 Frc consts  --      5.4597                 5.5730                 5.5971
 IR Inten    --     70.4097                43.8689                 5.2270

                     28                     29                     30
                     A"                     A'                     A"
 Frequencies --   3084.3211              3086.9301              3096.6736
 Red. masses --      1.1014                 1.1000                 1.1026
 Frc consts  --      6.1731                 6.1760                 6.2295
 IR Inten    --     19.9729                48.8071                 0.0016

                     31                     32                     33
                     A'                     A'                     A"
 Frequencies --   3102.7269              3492.2715              3571.8858
 Red. masses --      1.1018                 1.0489                 1.0936
 Frc consts  --      6.2495                 7.5368                 8.2203
 IR Inten    --     55.5215                 0.6268                 0.1559

 - Thermochemistry -
 -------------------
 Temperature   298.150 Kelvin.  Pressure   1.00000 Atm.
 Atom     1 has atomic number  6 and mass  12.00000

 Molecular mass:    59.07350 amu.
 Principal axes and moments of inertia in atomic units:
                           1         2         3
     Eigenvalues --   216.29249 226.40118 388.21158
           X            0.00000  -0.55256   0.83347
           Y            0.00000   0.83347   0.55256
           Z            1.00000  -0.00000  -0.00000
 This molecule is an asymmetric top.
 Rotational symmetry number  1.
 Rotational temperatures (Kelvin)      0.40045     0.38257     0.22311
 Rotational constants (GHZ):           8.34398     7.97143     4.64886
 Zero-point vibrational energy     315940.6 (Joules/Mol)
                                   75.51163 (Kcal/Mol)
 Warning -- explicit consideration of   6 degrees of freedom as
           vibrations may cause significant error
 Vibrational temperatures:    313.04   375.62   402.01   523.13   583.37
          (Kelvin)            684.21  1171.51  1190.69  1342.56  1385.52
                             1421.85  1483.23  1665.34  1728.22  1818.75
                             1975.41  2003.75  2029.09  2038.98  2138.09
                             2141.94  2151.44  2168.85  2380.98  4210.27
                             4350.52  4357.14  4437.65  4441.40  4455.42
                             4464.13  5024.60  5139.15

 Zero-point correction=                           0.120335 (Hartree/Particle)
 Thermal correction to Energy=                    0.125922
 Thermal correction to Enthalpy=                  0.126866
 Thermal correction to Gibbs Free Energy=         0.092851
 Sum of electronic and zero-point Energies=           -174.449331
 Sum of electronic and thermal Energies=              -174.443744
 Sum of electronic and thermal Enthalpies=            -174.442800
 Sum of electronic and thermal Free Energies=         -174.476815

                     E (Thermal)             CV                S
                      KCal/Mol        Cal/Mol-Kelvin    Cal/Mol-Kelvin
 Total                   79.017             19.768             71.591
 Electronic               0.000              0.000              0.000
 Translational            0.889              2.981             38.149
 Rotational               0.889              2.981             24.456
 Vibrational             77.240             13.806              8.985
 Vibration     1          0.646              1.814              1.979
 Vibration     2          0.669              1.744              1.655
 Vibration     3          0.680              1.712              1.537
 Vibration     4          0.737              1.547              1.107
 Vibration     5          0.770              1.458              0.943
 Vibration     6          0.832              1.304              0.722

 Optimization completed.
    -- Stationary point found.
 Normal termination of Gaussian 16 at Thu Jun 16 10:07:54 2022.
