 Gaussian 16, Revision B.01,

 ---------------------------------------
 # b3lyp/gen opt freq CPHF(Grid=OneStep)
 ---------------------------------------

 -----------------------------
 isopropylamine, B3LYP/pcseg-2
 -----------------------------
 Symbolic Z-matrix:
 Charge =  0 Multiplicity = 1

 SCF Done:  E(RB3LYP) =  -174.569665991     A.U. after   11 cycles
 Optimization completed.
    -- Stationary point found.
 Normal termination of Gaussian 16 at Sat Sep 30 06:54:29 2023.

 ------------------------------------------------------------------
 #N Geom=AllCheck Guess=TCheck SCRF=Check GenChk RB3LYP/ChkBas Freq
 ------------------------------------------------------------------

 Structure from the checkpoint file:  "iPrNH2.chk"
 -----------------------------
 isopropylamine, B3LYP/pcseg-2
 -----------------------------
 Charge =  0 Multiplicity = 1

 SCF Done:  E(RB3LYP) =  -174.569665991     A.U. after    1 cycles

  Exact polarizability:  46.463  -2.844  48.605   0.000   0.000  51.367
 Approx polarizability:  64.846  -1.495  64.506   0.000  -0.000  65.109

                      1                      2                      3
                     A"                     A'                     A"
 Frequencies --    217.5750               261.0661               279.4088
 Red. masses --      1.0269                 1.0647                 1.0507
 Frc consts  --      0.0286                 0.0428                 0.0483
 IR Inten    --      6.4336                 0.2214                30.4206

                      4                      5                      6
                     A'                     A"                     A'
 Frequencies --    363.5941               405.4563               475.5507
 Red. masses --      2.1344                 2.4208                 2.1366
 Frc consts  --      0.1662                 0.2345                 0.2847
 IR Inten    --      0.1369                 6.6133                11.4072

                      7                      8                      9
                     A'                     A'                     A"
 Frequencies --    814.2391               827.5756               933.1275
 Red. masses --      2.4745                 1.3764                 1.2046
 Frc consts  --      0.9666                 0.5554                 0.6180
 IR Inten    --     21.2911               110.9733                 0.1213

                     10                     11                     12
                     A"                     A'                     A"
 Frequencies --    962.9866               988.2399              1030.8990
 Red. masses --      1.4601                 1.8326                 1.5524
 Frc consts  --      0.7978                 1.0545                 0.9721
 IR Inten    --      0.0881                 5.1999                 1.4174

                     13                     14                     15
                     A'                     A'                     A"
 Frequencies --   1157.4710              1201.1774              1264.0904
 Red. masses --      1.9045                 1.9197                 1.2544
 Frc consts  --      1.5033                 1.6319                 1.1810
 IR Inten    --     13.7341                 7.2078                 0.3387

                     16                     17                     18
                     A'                     A"                     A"
 Frequencies --   1372.9821              1392.6775              1410.2886
 Red. masses --      1.3191                 1.2504                 1.5608
 Frc consts  --      1.4651                 1.4288                 1.8290
 IR Inten    --     22.3543                 0.0807                16.6976

                     19                     20                     21
                     A'                     A"                     A"
 Frequencies --   1417.1595              1486.0554              1488.7182
 Red. masses --      1.2437                 1.0445                 1.0685
 Frc consts  --      1.4716                 1.3590                 1.3953
 IR Inten    --     12.2919                 0.5882                 0.3540

                     22                     23                     24
                     A'                     A'                     A'
 Frequencies --   1495.3244              1507.4303              1654.8590
 Red. masses --      1.0505                 1.0531                 1.0940
 Frc consts  --      1.3840                 1.4100                 1.7652
 IR Inten    --      5.5779                 8.1957                34.4261

                     25                     26                     27
                     A'                     A"                     A'
 Frequencies --   2926.2856              3023.7648              3028.3641
 Red. masses --      1.0821                 1.0345                 1.0358
 Frc consts  --      5.4597                 5.5730                 5.5971
 IR Inten    --     70.4061                43.8701                 5.2271

                     28                     29                     30
                     A"                     A'                     A"
 Frequencies --   3084.3232              3086.9324              3096.6773
 Red. masses --      1.1014                 1.1000                 1.1026
 Frc consts  --      6.1731                 6.1761                 6.2295
 IR Inten    --     19.9737                48.7998                 0.0016

                     31                     32                     33
                     A'                     A'                     A"
 Frequencies --   3102.7279              3492.2747              3571.8833
 Red. masses --      1.1018                 1.0489                 1.0936
 Frc consts  --      6.2495                 7.5368                 8.2203
 IR Inten    --     55.5212                 0.6266                 0.1557

 - Thermochemistry -
 -------------------
 Temperature   298.150 Kelvin.  Pressure   1.00000 Atm.
 Atom     1 has atomic number  6 and mass  12.00000

 Molecular mass:    59.07350 amu.
 Principal axes and moments of inertia in atomic units:
                           1         2         3
     Eigenvalues --   216.29249 226.40125 388.21167
           X            0.00000  -0.55256   0.83347
           Y            0.00000   0.83347   0.55256
           Z            1.00000   0.00000   0.00000
 This molecule is an asymmetric top.
 Rotational symmetry number  1.
 Rotational temperatures (Kelvin)      0.40045     0.38257     0.22311
 Rotational constants (GHZ):           8.34398     7.97143     4.64886
 Zero-point vibrational energy     315940.9 (Joules/Mol)
                                   75.51168 (Kcal/Mol)
 Warning -- explicit consideration of   6 degrees of freedom as
           vibrations may cause significant error
 Vibrational temperatures:    313.04   375.62   402.01   523.13   583.36
          (Kelvin)            684.21  1171.51  1190.70  1342.56  1385.52
                             1421.86  1483.23  1665.34  1728.23  1818.74
                             1975.42  2003.75  2029.09  2038.98  2138.10
                             2141.93  2151.44  2168.86  2380.97  4210.27
                             4350.52  4357.14  4437.65  4441.41  4455.43
                             4464.13  5024.60  5139.14

 Zero-point correction=                           0.120336 (Hartree/Particle)
 Thermal correction to Energy=                    0.125922
 Thermal correction to Enthalpy=                  0.126866
 Thermal correction to Gibbs Free Energy=         0.092851
 Sum of electronic and zero-point Energies=           -174.449330
 Sum of electronic and thermal Energies=              -174.443744
 Sum of electronic and thermal Enthalpies=            -174.442800
 Sum of electronic and thermal Free Energies=         -174.476815

                     E (Thermal)             CV                S
                      KCal/Mol        Cal/Mol-Kelvin    Cal/Mol-Kelvin
 Total                   79.017             19.768             71.591
 Electronic               0.000              0.000              0.000
 Translational            0.889              2.981             38.149
 Rotational               0.889              2.981             24.456
 Vibrational             77.240             13.806              8.985
 Vibration     1          0.646              1.814              1.979
 Vibration     2          0.669              1.744              1.655
 Vibration     3          0.680              1.712              1.537
 Vibration     4          0.737              1.547              1.107
 Vibration     5          0.770              1.458              0.943
 Vibration     6          0.832              1.304              0.722

 Optimization completed.
    -- Stationary point found.
 Normal termination of Gaussian 16 at Sat Sep 30 07:03:27 2023.
 Gaussian 16:  ES64L-G16RevB.01 20-Dec-2017

 ---------------------------------
 # rohf/gen geom=check guess=check
 ---------------------------------

 --------------------------------
 isopropylamine, ROHF/cc-pVTZ-F12
 --------------------------------
 Structure from the checkpoint file:  "iPrNH2.chk"
 Charge =  0 Multiplicity = 1

                         Standard orientation:
 ---------------------------------------------------------------------
 Center     Atomic      Atomic             Coordinates (Angstroms)
 Number     Number       Type             X           Y           Z
 ---------------------------------------------------------------------
      1          6           0        0.291590    0.213683   -0.000000
      2          7           0       -0.907206    1.063422   -0.000000
      3          1           0        1.215084    0.811985   -0.000000
      4          6           0        0.291590   -0.642743    1.262559
      5          6           0        0.291590   -0.642743   -1.262559
      6          1           0       -0.927366    1.663430   -0.815233
      7          1           0       -0.927366    1.663430    0.815233
      8          1           0       -0.597023   -1.274948    1.291567
      9          1           0       -0.597023   -1.274948   -1.291567
     10          1           0        1.175618   -1.280443    1.300110
     11          1           0        1.175618   -1.280443   -1.300110
     12          1           0        0.292134   -0.020602    2.159996
     13          1           0        0.292134   -0.020602   -2.159996
 ---------------------------------------------------------------------

 SCF Done:  E(ROHF) =  -173.366733480     A.U. after   11 cycles

 The electronic state is 1-A'.
 Alpha  occ. eigenvalues --  -15.53346 -11.25122 -11.20739 -11.20737  -1.18065
 Alpha  occ. eigenvalues --   -1.01237  -0.93122  -0.78051  -0.65148  -0.65051
 Alpha  occ. eigenvalues --   -0.59739  -0.53829  -0.52776  -0.50672  -0.49005
 Alpha  occ. eigenvalues --   -0.47389  -0.38633
 Alpha virt. eigenvalues --    0.05005   0.05139   0.05487   0.06542   0.09142
 Alpha virt. eigenvalues --    0.09221   0.09476   0.09675   0.11761   0.12486
 Alpha virt. eigenvalues --    0.14338   0.15138   0.16536   0.18200   0.18613

 Mulliken charges and spin densities:
               1          2
     1  C    0.268067   0.000000
     2  N   -0.785269   0.000000
     3  H    0.072584   0.000000
     4  C   -0.286715   0.000000
     5  C   -0.286715   0.000000
     6  H    0.239781   0.000000
     7  H    0.239781   0.000000
     8  H    0.110058   0.000000
     9  H    0.110058   0.000000
    10  H    0.088711   0.000000
    11  H    0.088711   0.000000
    12  H    0.070474   0.000000
    13  H    0.070474   0.000000
 Sum of Mulliken charges =  -0.00000   0.00000

 Dipole moment (field-independent basis, Debye):
    X=              1.0591    Y=              0.7831    Z=             -0.0000  Tot=              1.3172
 Quadrupole moment (field-independent basis, Debye-Ang):
   XX=            -30.3094   YY=            -25.2262   ZZ=            -26.6800
   XY=             -0.4598   XZ=             -0.0000   YZ=             -0.0000

 Normal termination of Gaussian 16 at Sat Sep 30 07:05:21 2023.
