 Gaussian 16, Revision B.01,

 ---------------------------------------
 # b3lyp/gen opt freq CPHF(Grid=OneStep)
 ---------------------------------------

 -------------------------
 2-propanol, B3LYP/pcseg-2
 -------------------------
 Symbolic Z-matrix:
 Charge =  0 Multiplicity = 1

 SCF Done:  E(RB3LYP) =  -194.447396414     A.U. after   12 cycles
 Optimization completed.
    -- Stationary point found.
 Normal termination of Gaussian 16 at Fri Sep 29 08:16:30 2023.

 ------------------------------------------------------------------
 #N Geom=AllCheck Guess=TCheck SCRF=Check GenChk RB3LYP/ChkBas Freq
 ------------------------------------------------------------------

 Structure from the checkpoint file:  "iproh.chk"
 -------------------------
 2-propanol, B3LYP/pcseg-2
 -------------------------
 Charge =  0 Multiplicity = 1

 SCF Done:  E(RB3LYP) =  -194.447396414     A.U. after    1 cycles

  Exact polarizability:  47.360  -0.479  44.668  -0.176  -0.048  40.623
 Approx polarizability:  58.531  -1.051  59.426  -0.658  -1.006  57.160

                      1                      2                      3
                      A                      A                      A
 Frequencies --    218.3389               258.2702               287.2115
 Red. masses --      1.0340                 1.0963                 1.0453
 Frc consts  --      0.0290                 0.0431                 0.0508
 IR Inten    --      5.5550                 9.7451                98.2288

                      4                      5                      6
                      A                      A                      A
 Frequencies --    362.3127               414.8654               483.4142
 Red. masses --      2.1679                 2.8715                 2.2893
 Frc consts  --      0.1677                 0.2912                 0.3152
 IR Inten    --      1.8927                10.1561                 6.2378

                      7                      8                      9
                      A                      A                      A
 Frequencies --    819.1441               931.7750               948.2973
 Red. masses --      2.7485                 1.2638                 1.4062
 Frc consts  --      1.0866                 0.6465                 0.7450
 IR Inten    --      5.0912                 0.1120                 5.0682

                     10                     11                     12
                      A                      A                      A
 Frequencies --    957.9656              1083.8271              1154.6345
 Red. masses --      2.4114                 1.5997                 1.9854
 Frc consts  --      1.3038                 1.1071                 1.5595
 IR Inten    --     48.6881                22.7655                26.4582

                     13                     14                     15
                      A                      A                      A
 Frequencies --   1185.9445              1276.1607              1375.1494
 Red. masses --      1.9153                 1.2178                 1.2301
 Frc consts  --      1.5872                 1.1685                 1.3705
 IR Inten    --     28.5346                47.5328                11.9166

                     16                     17                     18
                      A                      A                      A
 Frequencies --   1393.9349              1411.2442              1424.9058
 Red. masses --      1.2284                 1.3670                 1.3943
 Frc consts  --      1.4063                 1.6040                 1.6680
 IR Inten    --      0.9905                21.9583                15.7681

                     19                     20                     21
                      A                      A                      A
 Frequencies --   1481.8573              1486.2052              1496.1361
 Red. masses --      1.0502                 1.0583                 1.0688
 Frc consts  --      1.3587                 1.3773                 1.4096
 IR Inten    --      0.8011                 1.6836                 5.5020

                     22                     23                     24
                      A                      A                      A
 Frequencies --   1506.8676              2968.6181              3023.0370
 Red. masses --      1.0530                 1.0836                 1.0353
 Frc consts  --      1.4087                 5.6262                 5.5743
 IR Inten    --      7.6798                49.9914                23.0564

                     25                     26                     27
                      A                      A                      A
 Frequencies --   3037.7907              3083.4748              3096.9127
 Red. masses --      1.0353                 1.1004                 1.1025
 Frc consts  --      5.6288                 6.1642                 6.2301
 IR Inten    --     12.6295                33.3751                 4.0841

                     28                     29                     30
                      A                      A                      A
 Frequencies --   3105.2502              3111.6551              3825.8619
 Red. masses --      1.1015                 1.1021                 1.0663
 Frc consts  --      6.2580                 6.2869                 9.1957
 IR Inten    --     50.8955                23.6764                19.5198

 - Thermochemistry -
 -------------------
 Temperature   298.150 Kelvin.  Pressure   1.00000 Atm.
 Atom     1 has atomic number  6 and mass  12.00000

 Molecular mass:    60.05751 amu.
 Principal axes and moments of inertia in atomic units:
                           1         2         3
     Eigenvalues --   208.59781 224.26654 379.36397
           X            0.98863  -0.15035  -0.00235
           Y            0.15037   0.98841   0.02067
           Z           -0.00078  -0.02079   0.99978
 This molecule is an asymmetric top.
 Rotational symmetry number  1.
 Rotational temperatures (Kelvin)      0.41522     0.38621     0.22831
 Rotational constants (GHZ):           8.65177     8.04730     4.75728
 Zero-point vibrational energy     282384.9 (Joules/Mol)
                                   67.49160 (Kcal/Mol)
 Warning -- explicit consideration of   6 degrees of freedom as
           vibrations may cause significant error
 Vibrational temperatures:    314.14   371.59   413.23   521.29   596.90
          (Kelvin)            695.53  1178.57  1340.62  1364.39  1378.30
                             1559.39  1661.26  1706.31  1836.11  1978.53
                             2005.56  2030.47  2050.12  2132.06  2138.32
                             2152.61  2168.05  4271.18  4349.48  4370.70
                             4436.43  4455.77  4467.76  4476.98  5504.56

 Zero-point correction=                           0.107555 (Hartree/Particle)
 Thermal correction to Energy=                    0.113047
 Thermal correction to Enthalpy=                  0.113991
 Thermal correction to Gibbs Free Energy=         0.080115
 Sum of electronic and zero-point Energies=           -194.339842
 Sum of electronic and thermal Energies=              -194.334350
 Sum of electronic and thermal Enthalpies=            -194.333405
 Sum of electronic and thermal Free Energies=         -194.367281

                     E (Thermal)             CV                S
                      KCal/Mol        Cal/Mol-Kelvin    Cal/Mol-Kelvin
 Total                   70.938             19.072             71.297
 Electronic               0.000              0.000              0.000
 Translational            0.889              2.981             38.198
 Rotational               0.889              2.981             24.388
 Vibrational             69.160             13.110              8.711
 Vibration     1          0.646              1.813              1.973
 Vibration     2          0.667              1.749              1.673
 Vibration     3          0.684              1.697              1.490
 Vibration     4          0.736              1.550              1.112
 Vibration     5          0.778              1.438              0.910
 Vibration     6          0.840              1.287              0.701

                           ! Non-Optimized Parameters !
 Normal termination of Gaussian 16 at Fri Sep 29 08:25:20 2023.
 Gaussian 16:  ES64L-G16RevB.01 20-Dec-2017

 ---------------------------------
 # rohf/gen geom=check guess=check
 ---------------------------------

 ----------------------------
 2-propanol, ROHF/cc-pVTZ-F12
 ----------------------------
 Structure from the checkpoint file:  "iproh.chk"
 Charge =  0 Multiplicity = 1

                         Standard orientation:
 ---------------------------------------------------------------------
 Center     Atomic      Atomic             Coordinates (Angstroms)
 Number     Number       Type             X           Y           Z
 ---------------------------------------------------------------------
      1          6           0        0.002121    0.038048    0.362394
      2          6           0       -1.191949   -0.787442   -0.102693
      3          6           0        1.329375   -0.545350   -0.089337
      4          8           0       -0.054870    1.371396   -0.162346
      5          1           0       -0.006231    0.086819    1.458806
      6          1           0       -2.131761   -0.337033    0.224480
      7          1           0       -1.206641   -0.854364   -1.191438
      8          1           0       -1.150281   -1.798043    0.306973
      9          1           0        2.154831    0.079734    0.249101
     10          1           0        1.465908   -1.548789    0.314634
     11          1           0        1.366899   -0.601041   -1.178188
     12          1           0       -0.891043    1.770016    0.092214
 ---------------------------------------------------------------------

 SCF Done:  E(ROHF) =  -193.208398521     A.U. after   10 cycles

 The electronic state is 1-A.
 Alpha  occ. eigenvalues --  -20.54946 -11.27891 -11.21615 -11.20902  -1.35366
 Alpha  occ. eigenvalues --   -1.04275  -0.93968  -0.79977  -0.69412  -0.62719
 Alpha  occ. eigenvalues --   -0.60447  -0.54696  -0.53448  -0.52776  -0.51101
 Alpha  occ. eigenvalues --   -0.47302  -0.43703
 Alpha virt. eigenvalues --    0.04694   0.05162   0.05610   0.06962   0.09003
 Alpha virt. eigenvalues --    0.09094   0.09509   0.09791   0.11300   0.12513
 Alpha virt. eigenvalues --    0.15970   0.17171   0.18972   0.20123   0.21470

 Mulliken charges and spin densities:
               1          2
     1  C    0.290277   0.000000
     2  C   -0.272095   0.000000
     3  C   -0.296153   0.000000
     4  O   -0.769059   0.000000
     5  H    0.091287   0.000000
     6  H    0.063264   0.000000
     7  H    0.105760   0.000000
     8  H    0.092994   0.000000
     9  H    0.101557   0.000000
    10  H    0.090128   0.000000
    11  H    0.107427   0.000000
    12  H    0.394613   0.000000
 Sum of Mulliken charges =  -0.00000   0.00000

 Dipole moment (field-independent basis, Debye):
    X=             -1.1815    Y=             -0.9249    Z=              0.9262  Tot=              1.7633
 Quadrupole moment (field-independent basis, Debye-Ang):
   XX=            -25.3840   YY=            -27.4657   ZZ=            -26.8406
   XY=             -2.7018   XZ=             -0.2782   YZ=              1.1634

 Normal termination of Gaussian 16 at Fri Sep 29 08:28:05 2023.
