 Gaussian 16, Revision B.01,
 Gaussian 16:  ES64L-G16RevB.01 20-Dec-2017

 --------------------
 # b3lyp/gen opt freq
 --------------------

 -------------------------
 2-propanol, B3LYP/pcseg-2
 -------------------------
 Symbolic Z-matrix:
 Charge =  0 Multiplicity = 1

 SCF Done:  E(RB3LYP) =  -194.447369956     A.U. after   12 cycles
 SCF Done:  E(RB3LYP) =  -194.447395488     A.U. after    7 cycles
 SCF Done:  E(RB3LYP) =  -194.447396415     A.U. after    6 cycles
 Optimization completed.
    -- Stationary point found.
 Normal termination of Gaussian 16 at Fri Jun 17 13:54:28 2022.

 ------------------------------------------------------------------
 #N Geom=AllCheck Guess=TCheck SCRF=Check GenChk RB3LYP/ChkBas Freq
 ------------------------------------------------------------------

 Structure from the checkpoint file:  "/wrk/irikura/Gau-3486.chk"
 -------------------------
 2-propanol, B3LYP/pcseg-2
 -------------------------
 Charge =  0 Multiplicity = 1

                         Standard orientation:
 ---------------------------------------------------------------------
 Center     Atomic      Atomic             Coordinates (Angstroms)
 Number     Number       Type             X           Y           Z
 ---------------------------------------------------------------------
      1          6           0        0.002121    0.038048    0.362394
      2          6           0       -1.191948   -0.787443   -0.102693
      3          6           0        1.329375   -0.545349   -0.089337
      4          8           0       -0.054871    1.371396   -0.162346
      5          1           0       -0.006231    0.086819    1.458806
      6          1           0       -2.131761   -0.337034    0.224480
      7          1           0       -1.206640   -0.854365   -1.191438
      8          1           0       -1.150280   -1.798044    0.306973
      9          1           0        2.154831    0.079736    0.249101
     10          1           0        1.465909   -1.548788    0.314634
     11          1           0        1.366900   -0.601040   -1.178188
     12          1           0       -0.891044    1.770016    0.092214
 ---------------------------------------------------------------------

 SCF Done:  E(RB3LYP) =  -194.447396415     A.U. after    1 cycles

 The electronic state is 1-A.
 Alpha  occ. eigenvalues --  -19.11998 -10.22460 -10.16443 -10.15817  -1.02021
 Alpha  occ. eigenvalues --   -0.77595  -0.69490  -0.59102  -0.51705  -0.45847
 Alpha  occ. eigenvalues --   -0.43960  -0.39621  -0.38613  -0.37283  -0.36096
 Alpha  occ. eigenvalues --   -0.32980  -0.27870
 Alpha virt. eigenvalues --    0.00558   0.03811   0.04777   0.05510   0.07027
 Alpha virt. eigenvalues --    0.08188   0.09924   0.11551   0.13001   0.14358
 Alpha virt. eigenvalues --    0.16991   0.17789   0.18431   0.21529   0.22667

 Mulliken charges:
               1
     1  C    0.244916
     2  C   -0.083628
     3  C   -0.058987
     4  O   -0.416284
     5  H    0.004283
     6  H    0.012734
     7  H    0.029293
     8  H    0.021254
     9  H    0.037998
    10  H    0.013354
    11  H    0.023032
    12  H    0.172035
 Sum of Mulliken charges =  -0.00000

 Dipole moment (field-independent basis, Debye):
    X=             -1.1276    Y=             -0.8272    Z=              0.8783  Tot=              1.6514
 Quadrupole moment (field-independent basis, Debye-Ang):
   XX=            -25.6805   YY=            -27.5127   ZZ=            -27.1510
   XY=             -2.6614   XZ=             -0.2761   YZ=              1.0984

  Exact polarizability:  47.359  -0.479  44.668  -0.176  -0.048  40.623
 Approx polarizability:  58.531  -1.051  59.426  -0.658  -1.006  57.160

                      1                      2                      3
                      A                      A                      A
 Frequencies --    218.3367               258.2712               287.2025
 Red. masses --      1.0340                 1.0963                 1.0453
 Frc consts  --      0.0290                 0.0431                 0.0508
 IR Inten    --      5.5588                 9.7503                98.2189

                      4                      5                      6
                      A                      A                      A
 Frequencies --    362.3132               414.8652               483.4148
 Red. masses --      2.1679                 2.8715                 2.2893
 Frc consts  --      0.1677                 0.2912                 0.3152
 IR Inten    --      1.8924                10.1555                 6.2378

                      7                      8                      9
                      A                      A                      A
 Frequencies --    819.1438               931.7777               948.2990
 Red. masses --      2.7485                 1.2638                 1.4061
 Frc consts  --      1.0866                 0.6465                 0.7450
 IR Inten    --      5.0914                 0.1121                 5.0636

                     10                     11                     12
                      A                      A                      A
 Frequencies --    957.9679              1083.8344              1154.6344
 Red. masses --      2.4115                 1.5997                 1.9853
 Frc consts  --      1.3039                 1.1072                 1.5595
 IR Inten    --     48.6948                22.7698                26.4560

                     13                     14                     15
                      A                      A                      A
 Frequencies --   1185.9447              1276.1604              1375.1479
 Red. masses --      1.9153                 1.2178                 1.2301
 Frc consts  --      1.5872                 1.1685                 1.3705
 IR Inten    --     28.5346                47.5330                11.9171

                     16                     17                     18
                      A                      A                      A
 Frequencies --   1393.9348              1411.2452              1424.9059
 Red. masses --      1.2284                 1.3670                 1.3944
 Frc consts  --      1.4063                 1.6040                 1.6680
 IR Inten    --      0.9903                21.9563                15.7679

                     19                     20                     21
                      A                      A                      A
 Frequencies --   1481.8576              1486.2074              1496.1385
 Red. masses --      1.0502                 1.0583                 1.0688
 Frc consts  --      1.3587                 1.3773                 1.4096
 IR Inten    --      0.8014                 1.6838                 5.5014

                     22                     23                     24
                      A                      A                      A
 Frequencies --   1506.8675              2968.6219              3023.0382
 Red. masses --      1.0530                 1.0836                 1.0353
 Frc consts  --      1.4087                 5.6262                 5.5743
 IR Inten    --      7.6802                49.9887                23.0592

                     25                     26                     27
                      A                      A                      A
 Frequencies --   3037.7920              3083.4770              3096.9135
 Red. masses --      1.0353                 1.1004                 1.1025
 Frc consts  --      5.6288                 6.1642                 6.2301
 IR Inten    --     12.6312                33.3724                 4.0898

                     28                     29                     30
                      A                      A                      A
 Frequencies --   3105.2526              3111.6511              3825.8654
 Red. masses --      1.1015                 1.1021                 1.0663
 Frc consts  --      6.2580                 6.2869                 9.1957
 IR Inten    --     50.8865                23.6770                19.5211

 - Thermochemistry -
 -------------------
 Temperature   298.150 Kelvin.  Pressure   1.00000 Atm.
 Atom     1 has atomic number  6 and mass  12.00000

 Molecular mass:    60.05751 amu.
 Principal axes and moments of inertia in atomic units:
                           1         2         3
     Eigenvalues --   208.59778 224.26652 379.36392
           X            0.98863  -0.15035  -0.00235
           Y            0.15037   0.98841   0.02067
           Z           -0.00078  -0.02079   0.99978
 This molecule is an asymmetric top.
 Rotational symmetry number  1.
 Rotational temperatures (Kelvin)      0.41522     0.38621     0.22831
 Rotational constants (GHZ):           8.65178     8.04731     4.75728
 Zero-point vibrational energy     282385.0 (Joules/Mol)
                                   67.49163 (Kcal/Mol)
 Warning -- explicit consideration of   6 degrees of freedom as
           vibrations may cause significant error
 Vibrational temperatures:    314.14   371.59   413.22   521.29   596.90
          (Kelvin)            695.53  1178.57  1340.62  1364.39  1378.30
                             1559.40  1661.26  1706.31  1836.11  1978.53
                             2005.56  2030.47  2050.12  2132.06  2138.32
                             2152.61  2168.05  4271.18  4349.48  4370.71
                             4436.44  4455.77  4467.77  4476.97  5504.57

 Zero-point correction=                           0.107555 (Hartree/Particle)
 Thermal correction to Energy=                    0.113047
 Thermal correction to Enthalpy=                  0.113991
 Thermal correction to Gibbs Free Energy=         0.080115
 Sum of electronic and zero-point Energies=           -194.339842
 Sum of electronic and thermal Energies=              -194.334350
 Sum of electronic and thermal Enthalpies=            -194.333405
 Sum of electronic and thermal Free Energies=         -194.367281

                     E (Thermal)             CV                S
                      KCal/Mol        Cal/Mol-Kelvin    Cal/Mol-Kelvin
 Total                   70.938             19.072             71.297
 Electronic               0.000              0.000              0.000
 Translational            0.889              2.981             38.198
 Rotational               0.889              2.981             24.388
 Vibrational             69.160             13.110              8.711
 Vibration     1          0.646              1.813              1.973
 Vibration     2          0.667              1.749              1.673
 Vibration     3          0.684              1.697              1.490
 Vibration     4          0.736              1.550              1.112
 Vibration     5          0.778              1.438              0.910
 Vibration     6          0.840              1.287              0.701

                           ! Non-Optimized Parameters !
 Normal termination of Gaussian 16 at Fri Jun 17 13:57:01 2022.
