 Gaussian 16, Revision B.01,

 ---------------------------------------
 # b3lyp/gen opt freq CPHF(Grid=OneStep)
 ---------------------------------------

 ------------------------
 isobutene, B3LYP/pcseg-2
 ------------------------
 Symbolic Z-matrix:
 Charge =  0 Multiplicity = 1

 SCF Done:  E(RB3LYP) =  -157.294710140     A.U. after   12 cycles
 Optimization completed.
    -- Stationary point found.
 Normal termination of Gaussian 16 at Fri Sep 29 14:43:39 2023.

 ------------------------------------------------------------------
 #N Geom=AllCheck Guess=TCheck SCRF=Check GenChk RB3LYP/ChkBas Freq
 ------------------------------------------------------------------

 Structure from the checkpoint file:  "isobutene.chk"
 ------------------------
 isobutene, B3LYP/pcseg-2
 ------------------------
 Charge =  0 Multiplicity = 1

 SCF Done:  E(RB3LYP) =  -157.294710140     A.U. after    1 cycles

  Exact polarizability:  38.786  -0.000  51.002   0.000   0.000  63.581
 Approx polarizability:  56.155   0.000  63.810   0.000  -0.000  92.748

                      1                      2                      3
                     A2                     B1                     A1
 Frequencies --    172.6583               209.8025               381.6793
 Red. masses --      1.0238                 1.0767                 2.1567
 Frc consts  --      0.0180                 0.0279                 0.1851
 IR Inten    --      0.0000                 0.4990                 0.2939

                      4                      5                      6
                     B2                     B1                     A2
 Frequencies --    440.4517               442.2022               705.9848
 Red. masses --      2.0651                 2.1366                 1.0092
 Frc consts  --      0.2360                 0.2462                 0.2964
 IR Inten    --      1.5219                 9.2283                 0.0000

                      7                      8                      9
                     A1                     B1                     B2
 Frequencies --    814.8215               927.0227               961.4464
 Red. masses --      3.4453                 1.3272                 1.5313
 Frc consts  --      1.3477                 0.6720                 0.8340
 IR Inten    --      0.1996                49.5904                 0.0685

                     10                     11                     12
                     B2                     A2                     A1
 Frequencies --    987.9778              1021.7466              1085.9565
 Red. masses --      1.3934                 1.2380                 1.4603
 Frc consts  --      0.8013                 0.7615                 1.0147
 IR Inten    --      0.4248                 0.0000                 2.6583

                     13                     14                     15
                     B1                     B2                     B2
 Frequencies --   1107.7287              1296.2394              1409.4331
 Red. masses --      1.7010                 2.6646                 1.3444
 Frc consts  --      1.2298                 2.6379                 1.5735
 IR Inten    --      0.0133                 3.7658                 8.7467

                     16                     17                     18
                     A1                     A1                     A2
 Frequencies --   1415.0656              1444.6255              1471.0452
 Red. masses --      1.1937                 1.2005                 1.0468
 Frc consts  --      1.4083                 1.4761                 1.3347
 IR Inten    --      0.4311                 1.5955                 0.0000

                     19                     20                     21
                     B2                     B1                     A1
 Frequencies --   1483.1793              1488.4347              1502.5423
 Red. masses --      1.0439                 1.0425                 1.0715
 Frc consts  --      1.3530                 1.3608                 1.4253
 IR Inten    --      4.0747                17.2604                14.9564

                     22                     23                     24
                     A1                     B2                     A1
 Frequencies --   1713.2673              3012.0050              3017.5552
 Red. masses --      4.8724                 1.0379                 1.0383
 Frc consts  --      8.4264                 5.5478                 5.5703
 IR Inten    --     23.0213                18.7636                41.5136

                     25                     26                     27
                     A2                     B1                     B2
 Frequencies --   3053.9860              3056.6054              3106.8132
 Red. masses --      1.0992                 1.0986                 1.0991
 Frc consts  --      6.0402                 6.0476                 6.2507
 IR Inten    --      0.0000                40.6793                26.3580

                     28                     29                     30
                     A1                     A1                     B2
 Frequencies --   3108.4030              3134.5962              3212.6895
 Red. masses --      1.0990                 1.0594                 1.1157
 Frc consts  --      6.2563                 6.1330                 6.7846
 IR Inten    --     18.4520                 8.7585                18.2569

 - Thermochemistry -
 -------------------
 Temperature   298.150 Kelvin.  Pressure   1.00000 Atm.
 Atom     1 has atomic number  6 and mass  12.00000

 Molecular mass:    56.06260 amu.
 Principal axes and moments of inertia in atomic units:
                           1         2         3
     Eigenvalues --   196.43229 214.49055 388.81573
           X           -0.00000   0.00000   1.00000
           Y            1.00000   0.00000   0.00000
           Z           -0.00000   1.00000  -0.00000
 This molecule is an asymmetric top.
 Rotational symmetry number  2.
 Rotational temperatures (Kelvin)      0.44094     0.40381     0.22276
 Rotational constants (GHZ):           9.18760     8.41408     4.64164
 Zero-point vibrational energy     282234.7 (Joules/Mol)
                                   67.45572 (Kcal/Mol)
 Warning -- explicit consideration of   5 degrees of freedom as
           vibrations may cause significant error
 Vibrational temperatures:    248.42   301.86   549.15   633.71   636.23
          (Kelvin)           1015.75  1172.35  1333.78  1383.31  1421.48
                             1470.07  1562.45  1593.77  1865.00  2027.86
                             2035.96  2078.49  2116.51  2133.96  2141.53
                             2161.82  2465.01  4333.60  4341.59  4394.00
                             4397.77  4470.01  4472.30  4509.98  4622.34

 Zero-point correction=                           0.107498 (Hartree/Particle)
 Thermal correction to Energy=                    0.112804
 Thermal correction to Enthalpy=                  0.113748
 Thermal correction to Gibbs Free Energy=         0.080858
 Sum of electronic and zero-point Energies=           -157.187213
 Sum of electronic and thermal Energies=              -157.181906
 Sum of electronic and thermal Enthalpies=            -157.180962
 Sum of electronic and thermal Free Energies=         -157.213852

                     E (Thermal)             CV                S
                      KCal/Mol        Cal/Mol-Kelvin    Cal/Mol-Kelvin
 Total                   70.786             18.367             69.224
 Electronic               0.000              0.000              0.000
 Translational            0.889              2.981             37.993
 Rotational               0.889              2.981             22.931
 Vibrational             69.008             12.406              8.300
 Vibration     1          0.626              1.876              2.406
 Vibration     2          0.642              1.826              2.045
 Vibration     3          0.751              1.509              1.033
 Vibration     4          0.800              1.382              0.825
 Vibration     5          0.802              1.378              0.820

 Optimization completed.
    -- Stationary point found.
 Normal termination of Gaussian 16 at Fri Sep 29 14:48:30 2023.
 Gaussian 16:  ES64L-G16RevB.01 20-Dec-2017

 ---------------------------------
 # rohf/gen geom=check guess=check
 ---------------------------------

 ---------------------------
 isobutene, ROHF/cc-pVTZ-F12
 ---------------------------
 Structure from the checkpoint file:  "isobutene.chk"
 Charge =  0 Multiplicity = 1

                         Standard orientation:
 ---------------------------------------------------------------------
 Center     Atomic      Atomic             Coordinates (Angstroms)
 Number     Number       Type             X           Y           Z
 ---------------------------------------------------------------------
      1          6           0       -0.000000    0.000000    0.124014
      2          6           0       -0.000000    0.000000    1.454677
      3          1           0       -0.000000    0.921724    2.022016
      4          1           0       -0.000000   -0.921724    2.022016
      5          6           0       -0.000000    1.272525   -0.676943
      6          6           0       -0.000000   -1.272525   -0.676943
      7          1           0       -0.000000    2.153978   -0.037787
      8          1           0        0.876253    1.321507   -1.329322
      9          1           0       -0.876253    1.321507   -1.329322
     10          1           0       -0.000000   -2.153978   -0.037787
     11          1           0       -0.876253   -1.321507   -1.329322
     12          1           0        0.876253   -1.321507   -1.329322
 ---------------------------------------------------------------------

 SCF Done:  E(ROHF) =  -156.178102889     A.U. after   11 cycles

 The electronic state is 1-A1.
 Alpha  occ. eigenvalues --  -11.23700 -11.21798 -11.21795 -11.20647  -1.08957
 Alpha  occ. eigenvalues --   -0.94173  -0.92711  -0.71903  -0.61980  -0.61072
 Alpha  occ. eigenvalues --   -0.59034  -0.53710  -0.52167  -0.51624  -0.47925
 Alpha  occ. eigenvalues --   -0.34761
 Alpha virt. eigenvalues --    0.05098   0.05339   0.05524   0.06647   0.08065
 Alpha virt. eigenvalues --    0.08668   0.09493   0.09736   0.10108   0.11818
 Alpha virt. eigenvalues --    0.14348   0.14485   0.14955   0.17865   0.18122

 Mulliken charges and spin densities:
               1          2
     1  C    0.200377   0.000000
     2  C   -0.425355   0.000000
     3  H    0.130771   0.000000
     4  H    0.130771   0.000000
     5  C   -0.314521   0.000000
     6  C   -0.314521   0.000000
     7  H    0.102737   0.000000
     8  H    0.096751   0.000000
     9  H    0.096751   0.000000
    10  H    0.102737   0.000000
    11  H    0.096751   0.000000
    12  H    0.096751   0.000000
 Sum of Mulliken charges =  -0.00000   0.00000

 Dipole moment (field-independent basis, Debye):
    X=              0.0000    Y=              0.0000    Z=             -0.5839  Tot=              0.5839
 Quadrupole moment (field-independent basis, Debye-Ang):
   XX=            -28.6241   YY=            -25.9404   ZZ=            -26.4371
   XY=             -0.0000   XZ=             -0.0000   YZ=              0.0000

 Normal termination of Gaussian 16 at Fri Sep 29 14:49:41 2023.
