 Gaussian 16, Revision B.01,
 Gaussian 16:  ES64L-G16RevB.01 20-Dec-2017

 --------------------
 # b3lyp/gen opt freq
 --------------------

 ------------------------
 isobutene, B3LYP/pcseg-2
 ------------------------
 Symbolic Z-matrix:
 Charge =  0 Multiplicity = 1

 SCF Done:  E(RB3LYP) =  -157.294611604     A.U. after   12 cycles
 SCF Done:  E(RB3LYP) =  -157.294709455     A.U. after    8 cycles
 SCF Done:  E(RB3LYP) =  -157.294710140     A.U. after    6 cycles
 Optimization completed.
    -- Stationary point found.
 Normal termination of Gaussian 16 at Wed Jun 15 16:03:37 2022.

 ------------------------------------------------------------------
 #N Geom=AllCheck Guess=TCheck SCRF=Check GenChk RB3LYP/ChkBas Freq
 ------------------------------------------------------------------

 Structure from the checkpoint file:  "/wrk/irikura/Gau-20244.chk"
 ------------------------
 isobutene, B3LYP/pcseg-2
 ------------------------
 Charge =  0 Multiplicity = 1

                         Standard orientation:
 ---------------------------------------------------------------------
 Center     Atomic      Atomic             Coordinates (Angstroms)
 Number     Number       Type             X           Y           Z
 ---------------------------------------------------------------------
      1          6           0        0.000000    0.000000    0.124014
      2          6           0        0.000000    0.000000    1.454677
      3          1           0        0.000000    0.921724    2.022016
      4          1           0       -0.000000   -0.921724    2.022016
      5          6           0        0.000000    1.272525   -0.676943
      6          6           0       -0.000000   -1.272525   -0.676943
      7          1           0        0.000000    2.153978   -0.037787
      8          1           0        0.876253    1.321507   -1.329322
      9          1           0       -0.876253    1.321507   -1.329322
     10          1           0       -0.000000   -2.153978   -0.037787
     11          1           0       -0.876253   -1.321507   -1.329322
     12          1           0        0.876253   -1.321507   -1.329322
 ---------------------------------------------------------------------

 SCF Done:  E(RB3LYP) =  -157.294710140     A.U. after    1 cycles

 The electronic state is 1-A1.
 Alpha  occ. eigenvalues --  -10.18110 -10.16573 -10.16572 -10.15297  -0.80969
 Alpha  occ. eigenvalues --   -0.69617  -0.68276  -0.52694  -0.45700  -0.44842
 Alpha  occ. eigenvalues --   -0.43623  -0.39017  -0.37458  -0.36994  -0.34289
 Alpha  occ. eigenvalues --   -0.25177
 Alpha virt. eigenvalues --    0.00712   0.01287   0.04854   0.05296   0.07096
 Alpha virt. eigenvalues --    0.07599   0.08239   0.11239   0.11524   0.13097
 Alpha virt. eigenvalues --    0.14577   0.16636   0.17398   0.17878   0.22062

 Mulliken charges:
               1
     1  C    0.024053
     2  C   -0.142959
     3  H    0.034708
     4  H    0.034708
     5  C   -0.052863
     6  C   -0.052863
     7  H    0.026219
     8  H    0.025695
     9  H    0.025695
    10  H    0.026219
    11  H    0.025695
    12  H    0.025695
 Sum of Mulliken charges =   0.00000

 Dipole moment (field-independent basis, Debye):
    X=             -0.0000    Y=              0.0000    Z=             -0.5721  Tot=              0.5721
 Quadrupole moment (field-independent basis, Debye-Ang):
   XX=            -28.4708   YY=            -26.0543   ZZ=            -26.6740
   XY=             -0.0000   XZ=              0.0000   YZ=              0.0000

  Exact polarizability:  38.785  -0.000  51.002   0.000   0.000  63.581
 Approx polarizability:  56.155   0.000  63.810   0.000   0.000  92.748

                      1                      2                      3
                     A2                     B1                     A1
 Frequencies --    172.6528               209.7985               381.6773
 Red. masses --      1.0238                 1.0767                 2.1567
 Frc consts  --      0.0180                 0.0279                 0.1851
 IR Inten    --      0.0000                 0.4989                 0.2939

                      4                      5                      6
                     B2                     B1                     A2
 Frequencies --    440.4518               442.2015               705.9782
 Red. masses --      2.0651                 2.1366                 1.0092
 Frc consts  --      0.2360                 0.2462                 0.2964
 IR Inten    --      1.5223                 9.2284                 0.0000

                      7                      8                      9
                     A1                     B1                     B2
 Frequencies --    814.8188               927.0194               961.4498
 Red. masses --      3.4453                 1.3272                 1.5313
 Frc consts  --      1.3477                 0.6720                 0.8340
 IR Inten    --      0.1995                49.5905                 0.0686

                     10                     11                     12
                     B2                     A2                     A1
 Frequencies --    987.9707              1021.7464              1085.9554
 Red. masses --      1.3934                 1.2380                 1.4603
 Frc consts  --      0.8013                 0.7615                 1.0147
 IR Inten    --      0.4247                 0.0000                 2.6583

                     13                     14                     15
                     B1                     B2                     B2
 Frequencies --   1107.7284              1296.2390              1409.4365
 Red. masses --      1.7010                 2.6647                 1.3444
 Frc consts  --      1.2298                 2.6379                 1.5735
 IR Inten    --      0.0133                 3.7663                 8.7431

                     16                     17                     18
                     A1                     A1                     A2
 Frequencies --   1415.0660              1444.6187              1471.0512
 Red. masses --      1.1937                 1.2005                 1.0468
 Frc consts  --      1.4083                 1.4761                 1.3347
 IR Inten    --      0.4310                 1.5951                 0.0000

                     19                     20                     21
                     B2                     B1                     A1
 Frequencies --   1483.1828              1488.4307              1502.5415
 Red. masses --      1.0439                 1.0425                 1.0715
 Frc consts  --      1.3530                 1.3608                 1.4253
 IR Inten    --      4.0735                17.2616                14.9577

                     22                     23                     24
                     A1                     B2                     A1
 Frequencies --   1713.2735              3012.0150              3017.5551
 Red. masses --      4.8724                 1.0379                 1.0383
 Frc consts  --      8.4265                 5.5478                 5.5703
 IR Inten    --     23.0273                18.7744                41.5164

                     25                     26                     27
                     A2                     B1                     B2
 Frequencies --   3054.0012              3056.6076              3106.8172
 Red. masses --      1.0992                 1.0986                 1.0991
 Frc consts  --      6.0403                 6.0477                 6.2507
 IR Inten    --      0.0000                40.6807                26.3536

                     28                     29                     30
                     A1                     A1                     B2
 Frequencies --   3108.4043              3134.5977              3212.6861
 Red. masses --      1.0990                 1.0594                 1.1157
 Frc consts  --      6.2564                 6.1330                 6.7846
 IR Inten    --     18.4490                 8.7588                18.2619

 - Thermochemistry -
 -------------------
 Temperature   298.150 Kelvin.  Pressure   1.00000 Atm.
 Atom     1 has atomic number  6 and mass  12.00000

 Molecular mass:    56.06260 amu.
 Principal axes and moments of inertia in atomic units:
                           1         2         3
     Eigenvalues --   196.43224 214.49063 388.81577
           X            0.00000   0.00000   1.00000
           Y            1.00000   0.00000  -0.00000
           Z           -0.00000   1.00000   0.00000
 This molecule is an asymmetric top.
 Rotational symmetry number  2.
 Rotational temperatures (Kelvin)      0.44094     0.40381     0.22276
 Rotational constants (GHZ):           9.18760     8.41408     4.64164
 Zero-point vibrational energy     282234.8 (Joules/Mol)
                                   67.45574 (Kcal/Mol)
 Warning -- explicit consideration of   5 degrees of freedom as
           vibrations may cause significant error
 Vibrational temperatures:    248.41   301.85   549.15   633.71   636.23
          (Kelvin)           1015.75  1172.34  1333.77  1383.31  1421.47
                             1470.07  1562.45  1593.77  1865.00  2027.86
                             2035.96  2078.48  2116.51  2133.97  2141.52
                             2161.82  2465.02  4333.62  4341.59  4394.03
                             4397.78  4470.02  4472.30  4509.99  4622.34

 Zero-point correction=                           0.107498 (Hartree/Particle)
 Thermal correction to Energy=                    0.112804
 Thermal correction to Enthalpy=                  0.113748
 Thermal correction to Gibbs Free Energy=         0.080858
 Sum of electronic and zero-point Energies=           -157.187213
 Sum of electronic and thermal Energies=              -157.181906
 Sum of electronic and thermal Enthalpies=            -157.180962
 Sum of electronic and thermal Free Energies=         -157.213852

                     E (Thermal)             CV                S
                      KCal/Mol        Cal/Mol-Kelvin    Cal/Mol-Kelvin
 Total                   70.786             18.367             69.224
 Electronic               0.000              0.000              0.000
 Translational            0.889              2.981             37.993
 Rotational               0.889              2.981             22.931
 Vibrational             69.008             12.406              8.300
 Vibration     1          0.626              1.876              2.406
 Vibration     2          0.642              1.826              2.045
 Vibration     3          0.751              1.509              1.033
 Vibration     4          0.800              1.382              0.825
 Vibration     5          0.802              1.378              0.820

 Optimization completed.
    -- Stationary point found.
 Normal termination of Gaussian 16 at Wed Jun 15 16:04:47 2022.
