 Gaussian 16, Revision B.01,

 ---------------------------------------
 # b3lyp/gen opt freq CPHF(Grid=OneStep)
 ---------------------------------------

 -------------------------------------
 2,2,4-trimethylpentane, B3LYP/pcseg-2
 -------------------------------------
 Symbolic Z-matrix:
 Charge =  0 Multiplicity = 1

 SCF Done:  E(RB3LYP) =  -315.833940809     A.U. after   12 cycles
 Optimization completed.
    -- Stationary point found.
 Normal termination of Gaussian 16 at Thu Sep 28 19:02:04 2023.

 ------------------------------------------------------------------
 #N Geom=AllCheck Guess=TCheck SCRF=Check GenChk RB3LYP/ChkBas Freq
 ------------------------------------------------------------------

 Structure from the checkpoint file:  "isooctane.chk"
 -------------------------------------
 2,2,4-trimethylpentane, B3LYP/pcseg-2
 -------------------------------------
 Charge =  0 Multiplicity = 1

 SCF Done:  E(RB3LYP) =  -315.833940809     A.U. after    1 cycles

  Exact polarizability: 110.642   0.091  98.089  -0.451  -0.047  92.034
 Approx polarizability: 138.004   0.211 136.594   0.206  -0.018 136.653

                      1                      2                      3
                      A                      A                      A
 Frequencies --     50.7644                94.8300               187.9568
 Red. masses --      2.5357                 2.4023                 2.2782
 Frc consts  --      0.0039                 0.0127                 0.0474
 IR Inten    --      0.0038                 0.0029                 0.0239

                      4                      5                      6
                      A                      A                      A
 Frequencies --    223.6874               231.9556               259.6487
 Red. masses --      1.0362                 1.0394                 1.1716
 Frc consts  --      0.0305                 0.0329                 0.0465
 IR Inten    --      0.0069                 0.0005                 0.0072

                      7                      8                      9
                      A                      A                      A
 Frequencies --    265.0783               290.1113               293.5616
 Red. masses --      1.1913                 1.8008                 1.3504
 Frc consts  --      0.0493                 0.0893                 0.0686
 IR Inten    --      0.0382                 0.0024                 0.0700

                     10                     11                     12
                      A                      A                      A
 Frequencies --    309.2385               352.6952               385.0176
 Red. masses --      1.6805                 2.0695                 2.1184
 Frc consts  --      0.0947                 0.1517                 0.1850
 IR Inten    --      0.0059                 0.0564                 0.0224

                     13                     14                     15
                      A                      A                      A
 Frequencies --    409.0709               414.0562               455.2804
 Red. masses --      2.0286                 1.9360                 2.1854
 Frc consts  --      0.2000                 0.1956                 0.2669
 IR Inten    --      0.0687                 0.0534                 0.3104

                     16                     17                     18
                      A                      A                      A
 Frequencies --    505.5055               741.7912               833.1556
 Red. masses --      2.3780                 3.1806                 2.5248
 Frc consts  --      0.3580                 1.0311                 1.0326
 IR Inten    --      0.0247                 0.1724                 0.5630

                     19                     20                     21
                      A                      A                      A
 Frequencies --    873.2757               901.4239               929.3535
 Red. masses --      1.7402                 2.2111                 1.3332
 Frc consts  --      0.7819                 1.0585                 0.6784
 IR Inten    --      0.5523                 0.1337                 0.6886

                     22                     23                     24
                      A                      A                      A
 Frequencies --    932.7846               940.3364               961.4826
 Red. masses --      1.7003                 1.4105                 1.2105
 Frc consts  --      0.8717                 0.7348                 0.6593
 IR Inten    --      0.5964                 0.3180                 0.0195

                     25                     26                     27
                      A                      A                      A
 Frequencies --    964.2584               986.0006              1035.2302
 Red. masses --      1.5306                 2.0490                 1.3693
 Frc consts  --      0.8385                 1.1737                 0.8646
 IR Inten    --      0.0305                 2.4625                 0.1310

                     28                     29                     30
                      A                      A                      A
 Frequencies --   1041.1757              1118.0907              1134.9377
 Red. masses --      1.4116                 1.6117                 1.8013
 Frc consts  --      0.9016                 1.1871                 1.3670
 IR Inten    --      0.0295                 0.5835                 0.6348

                     31                     32                     33
                      A                      A                      A
 Frequencies --   1191.1660              1222.3031              1231.8254
 Red. masses --      1.8242                 1.8525                 2.4132
 Frc consts  --      1.5250                 1.6307                 2.1574
 IR Inten    --      5.6741                 3.3991                 3.8646

                     34                     35                     36
                      A                      A                      A
 Frequencies --   1266.1044              1310.9514              1331.8050
 Red. masses --      2.7721                 1.5085                 1.3166
 Frc consts  --      2.6182                 1.5275                 1.3759
 IR Inten    --      6.6046                 2.5532                 0.9617

                     37                     38                     39
                      A                      A                      A
 Frequencies --   1367.7825              1383.6678              1399.2534
 Red. masses --      1.3869                 1.3886                 1.2361
 Frc consts  --      1.5287                 1.5664                 1.4259
 IR Inten    --      1.0215                 3.9023                 1.7121

                     40                     41                     42
                      A                      A                      A
 Frequencies --   1400.4306              1401.9131              1421.8555
 Red. masses --      1.2279                 1.2275                 1.2235
 Frc consts  --      1.4189                 1.4214                 1.4574
 IR Inten    --      6.3484                15.4738                 2.8593

                     43                     44                     45
                      A                      A                      A
 Frequencies --   1431.6012              1481.1994              1482.8781
 Red. masses --      1.2331                 1.0633                 1.0503
 Frc consts  --      1.4890                 1.3744                 1.3608
 IR Inten    --      7.2528                 0.2864                 0.4009

                     46                     47                     48
                      A                      A                      A
 Frequencies --   1487.4245              1489.8258              1491.1272
 Red. masses --      1.0470                 1.0437                 1.0523
 Frc consts  --      1.3648                 1.3649                 1.3785
 IR Inten    --      0.0111                 0.0617                 1.5715

                     49                     50                     51
                      A                      A                      A
 Frequencies --   1495.7719              1504.5698              1507.3885
 Red. masses --      1.0527                 1.0518                 1.0539
 Frc consts  --      1.3876                 1.4029                 1.4109
 IR Inten    --      3.4851                 1.3360                 8.6282

                     52                     53                     54
                      A                      A                      A
 Frequencies --   1509.3774              1512.9817              1519.7790
 Red. masses --      1.0600                 1.0515                 1.0595
 Frc consts  --      1.4228                 1.4181                 1.4419
 IR Inten    --     14.2869                 1.0438                18.4197

                     55                     56                     57
                      A                      A                      A
 Frequencies --   3001.3513              3014.0194              3016.3801
 Red. masses --      1.0597                 1.0690                 1.0375
 Frc consts  --      5.6243                 5.7218                 5.5618
 IR Inten    --     15.9617                 0.8588                28.2562

                     58                     59                     60
                      A                      A                      A
 Frequencies --   3017.6629              3020.5553              3024.7037
 Red. masses --      1.0380                 1.0354                 1.0440
 Frc consts  --      5.5693                 5.5656                 5.6276
 IR Inten    --     43.9774                29.3115                56.1620

                     61                     62                     63
                      A                      A                      A
 Frequencies --   3028.6275              3036.1931              3072.9638
 Red. masses --      1.0381                 1.1006                 1.1008
 Frc consts  --      5.6103                 5.9780                 6.1244
 IR Inten    --      5.9573                28.4826                 2.6189

                     64                     65                     66
                      A                      A                      A
 Frequencies --   3078.3603              3078.7400              3080.7653
 Red. masses --      1.1020                 1.1020                 1.1001
 Frc consts  --      6.1529                 6.1542                 6.1520
 IR Inten    --      1.8958                 0.2878                45.4654

                     67                     68                     69
                      A                      A                      A
 Frequencies --   3083.0035              3085.6829              3086.4842
 Red. masses --      1.1015                 1.1008                 1.1013
 Frc consts  --      6.1683                 6.1752                 6.1815
 IR Inten    --     36.9906               107.4871                43.5332

                     70                     71                     72
                      A                      A                      A
 Frequencies --   3089.3724              3094.2087              3106.2022
 Red. masses --      1.1006                 1.1003                 1.0979
 Frc consts  --      6.1890                 6.2064                 6.2412
 IR Inten    --     29.1801                67.1749                23.1543

 - Thermochemistry -
 -------------------
 Temperature   298.150 Kelvin.  Pressure   1.00000 Atm.
 Atom     1 has atomic number  6 and mass  12.00000

 Molecular mass:   114.14085 amu.
 Principal axes and moments of inertia in atomic units:
                           1         2         3
     Eigenvalues --   618.136991493.989041661.86005
           X            1.00000   0.00026   0.00035
           Y           -0.00026   1.00000   0.00041
           Z           -0.00034  -0.00041   1.00000
 This molecule is an asymmetric top.
 Rotational symmetry number  1.
 Warning -- assumption of classical behavior for rotation
           may cause significant error
 Rotational temperatures (Kelvin)      0.14012     0.05797     0.05212
 Rotational constants (GHZ):           2.91965     1.20800     1.08598
 Zero-point vibrational energy     639882.6 (Joules/Mol)
                                  152.93561 (Kcal/Mol)
 Warning -- explicit consideration of  16 degrees of freedom as
           vibrations may cause significant error
 Vibrational temperatures:     73.04   136.44   270.43   321.84   333.73
          (Kelvin)            373.58   381.39   417.41   422.37   444.93
                              507.45   553.95   588.56   595.73   655.05
                              727.31  1067.27  1198.73  1256.45  1296.95
                             1337.13  1342.07  1352.93  1383.36  1387.35
                             1418.63  1489.47  1498.02  1608.68  1632.92
                             1713.82  1758.62  1772.32  1821.64  1886.17
                             1916.17  1967.93  1990.79  2013.21  2014.91
                             2017.04  2045.73  2059.75  2131.12  2133.53
                             2140.07  2143.53  2145.40  2152.08  2164.74
                             2168.80  2171.66  2176.84  2186.62  4318.28
                             4336.50  4339.90  4341.74  4345.91  4351.87
                             4357.52  4368.40  4421.31  4429.07  4429.62
                             4432.53  4435.75  4439.61  4440.76  4444.92
                             4451.88  4469.13

 Zero-point correction=                           0.243718 (Hartree/Particle)
 Thermal correction to Energy=                    0.254554
 Thermal correction to Enthalpy=                  0.255498
 Thermal correction to Gibbs Free Energy=         0.208704
 Sum of electronic and zero-point Energies=           -315.590222
 Sum of electronic and thermal Energies=              -315.579387
 Sum of electronic and thermal Enthalpies=            -315.578442
 Sum of electronic and thermal Free Energies=         -315.625237

                     E (Thermal)             CV                S
                      KCal/Mol        Cal/Mol-Kelvin    Cal/Mol-Kelvin
 Total                  159.735             41.185             98.488
 Electronic               0.000              0.000              0.000
 Translational            0.889              2.981             40.112
 Rotational               0.889              2.981             28.819
 Vibrational            157.958             35.223             29.557
 Vibration     1          0.595              1.977              4.787
 Vibration     2          0.603              1.953              3.558
 Vibration     3          0.633              1.856              2.248
 Vibration     4          0.649              1.805              1.929
 Vibration     5          0.653              1.792              1.864
 Vibration     6          0.668              1.746              1.664
 Vibration     7          0.671              1.737              1.628
 Vibration     8          0.686              1.692              1.473
 Vibration     9          0.688              1.686              1.453
 Vibration    10          0.699              1.656              1.366
 Vibration    11          0.729              1.570              1.154
 Vibration    12          0.754              1.502              1.019
 Vibration    13          0.773              1.451              0.930
 Vibration    14          0.778              1.440              0.912
 Vibration    15          0.814              1.349              0.780
 Vibration    16          0.861              1.238              0.645

 Optimization completed.
    -- Stationary point found.
 Normal termination of Gaussian 16 at Thu Sep 28 20:40:38 2023.
 Gaussian 16:  ES64L-G16RevB.01 20-Dec-2017

 ---------------------------------
 # rohf/gen geom=check guess=check
 ---------------------------------

 ----------------------------------------
 2,2,4-trimethylpentane, ROHF/cc-pVTZ-F12
 ----------------------------------------
 Structure from the checkpoint file:  "isooctane.chk"
 Charge =  0 Multiplicity = 1

                         Standard orientation:
 ---------------------------------------------------------------------
 Center     Atomic      Atomic             Coordinates (Angstroms)
 Number     Number       Type             X           Y           Z
 ---------------------------------------------------------------------
      1          6           0        0.181575   -0.293914    0.658895
      2          6           0       -1.200566   -0.028176    0.008265
      3          6           0        1.450772   -0.048733   -0.192454
      4          6           0       -1.452470   -1.022633   -1.137435
      5          6           0       -1.319252    1.406430   -0.528848
      6          6           0       -2.275663   -0.241352    1.087219
      7          6           0        2.069316    1.330739    0.066319
      8          6           0        2.495033   -1.143638    0.055967
      9          1           0        0.253439    0.305006    1.572598
     10          1           0        0.175799   -1.336344    0.990086
     11          1           0        1.177226   -0.097595   -1.250161
     12          1           0       -1.405405   -2.052962   -0.779068
     13          1           0       -2.441536   -0.866375   -1.572422
     14          1           0       -0.722248   -0.914299   -1.940281
     15          1           0       -0.606629    1.600095   -1.331129
     16          1           0       -1.147274    2.140869    0.260256
     17          1           0       -2.319364    1.580286   -0.931028
     18          1           0       -2.149502    0.462204    1.912477
     19          1           0       -3.276861   -0.097937    0.675970
     20          1           0       -2.225698   -1.251382    1.498894
     21          1           0        2.408789    1.408510    1.102296
     22          1           0        1.360841    2.138979   -0.109697
     23          1           0        2.934334    1.499813   -0.577823
     24          1           0        3.395743   -0.975035   -0.537273
     25          1           0        2.791399   -1.166104    1.107795
     26          1           0        2.104479   -2.130063   -0.199054
 ---------------------------------------------------------------------

 SCF Done:  E(ROHF) =  -313.554958662     A.U. after   10 cycles

 The electronic state is 1-A.
 Alpha  occ. eigenvalues --  -11.22978 -11.22050 -11.20894 -11.20624 -11.20565
 Alpha  occ. eigenvalues --  -11.20540 -11.20521 -11.20504  -1.11174  -1.05725
 Alpha  occ. eigenvalues --   -0.93225  -0.92755  -0.92101  -0.91594  -0.77741
 Alpha  occ. eigenvalues --   -0.72577  -0.63648  -0.61727  -0.60327  -0.58568
 Alpha  occ. eigenvalues --   -0.57664  -0.56859  -0.53622  -0.53238  -0.52764
 Alpha  occ. eigenvalues --   -0.51022  -0.50321  -0.48990  -0.47244  -0.46295
 Alpha  occ. eigenvalues --   -0.44512  -0.43613  -0.42742
 Alpha virt. eigenvalues --    0.03958   0.04608   0.04788   0.04945   0.06386
 Alpha virt. eigenvalues --    0.06631   0.07240   0.07754   0.07990   0.09884
 Alpha virt. eigenvalues --    0.09934   0.10397   0.10588   0.10774   0.11703

 Mulliken charges and spin densities:
               1          2
     1  C   -0.224599   0.000000
     2  C    0.314309   0.000000
     3  C    0.108640   0.000000
     4  C   -0.416053   0.000000
     5  C   -0.454056   0.000000
     6  C   -0.382388   0.000000
     7  C   -0.370188   0.000000
     8  C   -0.397313   0.000000
     9  H    0.081303   0.000000
    10  H    0.074481   0.000000
    11  H    0.069632   0.000000
    12  H    0.114046   0.000000
    13  H    0.106685   0.000000
    14  H    0.103742   0.000000
    15  H    0.110404   0.000000
    16  H    0.118107   0.000000
    17  H    0.105728   0.000000
    18  H    0.107918   0.000000
    19  H    0.103907   0.000000
    20  H    0.106652   0.000000
    21  H    0.109095   0.000000
    22  H    0.100285   0.000000
    23  H    0.097596   0.000000
    24  H    0.101740   0.000000
    25  H    0.113358   0.000000
    26  H    0.096968   0.000000
 Sum of Mulliken charges =  -0.00000   0.00000

 Dipole moment (field-independent basis, Debye):
    X=             -0.0477    Y=             -0.0051    Z=             -0.0886  Tot=              0.1008
 Quadrupole moment (field-independent basis, Debye-Ang):
   XX=            -56.6244   YY=            -56.4682   ZZ=            -55.8533
   XY=             -0.0225   XZ=             -0.0530   YZ=              0.0364

 Normal termination of Gaussian 16 at Thu Sep 28 21:19:03 2023.
