 Gaussian 16, Revision B.01,
 Gaussian 16:  ES64L-G16RevB.01 20-Dec-2017

 --------------------
 # b3lyp/gen opt freq
 --------------------

 -------------------------------------
 2,2,4-trimethylpentane, B3LYP/pcseg-2
 -------------------------------------
 Symbolic Z-matrix:
 Charge =  0 Multiplicity = 1

 SCF Done:  E(RB3LYP) =  -315.833547219     A.U. after   12 cycles
 SCF Done:  E(RB3LYP) =  -315.833935603     A.U. after    9 cycles
 SCF Done:  E(RB3LYP) =  -315.833933807     A.U. after    7 cycles
 SCF Done:  E(RB3LYP) =  -315.833940769     A.U. after    7 cycles
 SCF Done:  E(RB3LYP) =  -315.833940810     A.U. after    5 cycles
 SCF Done:  E(RB3LYP) =  -315.833940800     A.U. after    5 cycles
 SCF Done:  E(RB3LYP) =  -315.833940809     A.U. after    5 cycles
 Optimization completed.
    -- Stationary point found.
 Normal termination of Gaussian 16 at Mon Jun 20 10:45:47 2022.

 ------------------------------------------------------------------
 #N Geom=AllCheck Guess=TCheck SCRF=Check GenChk RB3LYP/ChkBas Freq
 ------------------------------------------------------------------

 Structure from the checkpoint file:  "/wrk/irikura/Gau-10261.chk"
 -------------------------------------
 2,2,4-trimethylpentane, B3LYP/pcseg-2
 -------------------------------------
 Charge =  0 Multiplicity = 1

                         Standard orientation:
 ---------------------------------------------------------------------
 Center     Atomic      Atomic             Coordinates (Angstroms)
 Number     Number       Type             X           Y           Z
 ---------------------------------------------------------------------
      1          6           0        0.181575   -0.293914    0.658895
      2          6           0       -1.200566   -0.028176    0.008265
      3          6           0        1.450772   -0.048733   -0.192454
      4          6           0       -1.452470   -1.022633   -1.137435
      5          6           0       -1.319252    1.406430   -0.528848
      6          6           0       -2.275663   -0.241352    1.087219
      7          6           0        2.069316    1.330739    0.066319
      8          6           0        2.495033   -1.143638    0.055967
      9          1           0        0.253439    0.305006    1.572598
     10          1           0        0.175799   -1.336344    0.990086
     11          1           0        1.177226   -0.097595   -1.250161
     12          1           0       -1.405405   -2.052962   -0.779068
     13          1           0       -2.441536   -0.866375   -1.572422
     14          1           0       -0.722248   -0.914299   -1.940281
     15          1           0       -0.606629    1.600095   -1.331129
     16          1           0       -1.147274    2.140869    0.260256
     17          1           0       -2.319364    1.580286   -0.931028
     18          1           0       -2.149502    0.462204    1.912477
     19          1           0       -3.276861   -0.097937    0.675970
     20          1           0       -2.225698   -1.251382    1.498894
     21          1           0        2.408789    1.408510    1.102296
     22          1           0        1.360841    2.138979   -0.109697
     23          1           0        2.934334    1.499813   -0.577823
     24          1           0        3.395743   -0.975035   -0.537273
     25          1           0        2.791399   -1.166104    1.107795
     26          1           0        2.104479   -2.130063   -0.199054
 ---------------------------------------------------------------------

 SCF Done:  E(RB3LYP) =  -315.833940809     A.U. after    1 cycles

 The electronic state is 1-A.
 Alpha  occ. eigenvalues --  -10.18126 -10.17127 -10.15920 -10.15544 -10.15532
 Alpha  occ. eigenvalues --  -10.15510 -10.15484 -10.15443  -0.82971  -0.78617
 Alpha  occ. eigenvalues --   -0.68865  -0.68479  -0.67872  -0.67518  -0.56956
 Alpha  occ. eigenvalues --   -0.53189  -0.47126  -0.45589  -0.44518  -0.42976
 Alpha  occ. eigenvalues --   -0.42226  -0.41569  -0.38856  -0.38508  -0.38145
 Alpha  occ. eigenvalues --   -0.36567  -0.35989  -0.35203  -0.33747  -0.33101
 Alpha  occ. eigenvalues --   -0.31690  -0.30940  -0.30379
 Alpha virt. eigenvalues --    0.00891   0.02996   0.03769   0.04092   0.05609
 Alpha virt. eigenvalues --    0.06037   0.06190   0.06936   0.07355   0.08206
 Alpha virt. eigenvalues --    0.09376   0.10455   0.10821   0.11273   0.11692

 Mulliken charges:
               1
     1  C   -0.122930
     2  C    0.100759
     3  C    0.055037
     4  C   -0.085296
     5  C   -0.125126
     6  C   -0.111868
     7  C   -0.079547
     8  C   -0.102265
     9  H    0.027063
    10  H    0.022758
    11  H    0.005139
    12  H    0.025772
    13  H    0.026030
    14  H    0.024637
    15  H    0.035820
    16  H    0.036203
    17  H    0.026307
    18  H    0.026450
    19  H    0.027292
    20  H    0.027851
    21  H    0.021733
    22  H    0.034688
    23  H    0.023826
    24  H    0.024830
    25  H    0.025365
    26  H    0.029472
 Sum of Mulliken charges =  -0.00000

 Dipole moment (field-independent basis, Debye):
    X=             -0.0555    Y=             -0.0081    Z=             -0.0952  Tot=              0.1105
 Quadrupole moment (field-independent basis, Debye-Ang):
   XX=            -56.7632   YY=            -56.7006   ZZ=            -56.1471
   XY=             -0.0226   XZ=             -0.0741   YZ=              0.0445

  Exact polarizability: 110.642   0.091  98.091  -0.451  -0.047  92.035
 Approx polarizability: 138.004   0.210 136.594   0.206  -0.018 136.653

                      1                      2                      3
                      A                      A                      A
 Frequencies --     50.7655                94.8302               187.9565
 Red. masses --      2.5357                 2.4023                 2.2782
 Frc consts  --      0.0039                 0.0127                 0.0474
 IR Inten    --      0.0038                 0.0029                 0.0239

                      4                      5                      6
                      A                      A                      A
 Frequencies --    223.6856               231.9551               259.6485
 Red. masses --      1.0363                 1.0394                 1.1716
 Frc consts  --      0.0305                 0.0329                 0.0465
 IR Inten    --      0.0069                 0.0005                 0.0072

                      7                      8                      9
                      A                      A                      A
 Frequencies --    265.0770               290.1095               293.5607
 Red. masses --      1.1913                 1.8008                 1.3503
 Frc consts  --      0.0493                 0.0893                 0.0686
 IR Inten    --      0.0382                 0.0025                 0.0699

                     10                     11                     12
                      A                      A                      A
 Frequencies --    309.2369               352.6941               385.0142
 Red. masses --      1.6806                 2.0695                 2.1184
 Frc consts  --      0.0947                 0.1517                 0.1850
 IR Inten    --      0.0059                 0.0564                 0.0223

                     13                     14                     15
                      A                      A                      A
 Frequencies --    409.0697               414.0553               455.2793
 Red. masses --      2.0285                 1.9361                 2.1854
 Frc consts  --      0.2000                 0.1956                 0.2669
 IR Inten    --      0.0686                 0.0533                 0.3107

                     16                     17                     18
                      A                      A                      A
 Frequencies --    505.5048               741.7899               833.1535
 Red. masses --      2.3780                 3.1805                 2.5248
 Frc consts  --      0.3580                 1.0311                 1.0326
 IR Inten    --      0.0247                 0.1724                 0.5629

                     19                     20                     21
                      A                      A                      A
 Frequencies --    873.2760               901.4204               929.3494
 Red. masses --      1.7402                 2.2111                 1.3333
 Frc consts  --      0.7819                 1.0585                 0.6785
 IR Inten    --      0.5523                 0.1341                 0.6885

                     22                     23                     24
                      A                      A                      A
 Frequencies --    932.7706               940.3290               961.4693
 Red. masses --      1.7003                 1.4104                 1.2105
 Frc consts  --      0.8716                 0.7348                 0.6593
 IR Inten    --      0.5974                 0.3190                 0.0194

                     25                     26                     27
                      A                      A                      A
 Frequencies --    964.2524               985.9944              1035.2235
 Red. masses --      1.5306                 2.0490                 1.3693
 Frc consts  --      0.8385                 1.1736                 0.8646
 IR Inten    --      0.0305                 2.4630                 0.1312

                     28                     29                     30
                      A                      A                      A
 Frequencies --   1041.1744              1118.0876              1134.9355
 Red. masses --      1.4117                 1.6117                 1.8013
 Frc consts  --      0.9016                 1.1871                 1.3670
 IR Inten    --      0.0295                 0.5837                 0.6349

                     31                     32                     33
                      A                      A                      A
 Frequencies --   1191.1630              1222.2986              1231.8222
 Red. masses --      1.8242                 1.8525                 2.4131
 Frc consts  --      1.5250                 1.6307                 2.1573
 IR Inten    --      5.6770                 3.3987                 3.8623

                     34                     35                     36
                      A                      A                      A
 Frequencies --   1266.1032              1310.9443              1331.7924
 Red. masses --      2.7721                 1.5086                 1.3166
 Frc consts  --      2.6182                 1.5275                 1.3759
 IR Inten    --      6.6035                 2.5520                 0.9598

                     37                     38                     39
                      A                      A                      A
 Frequencies --   1367.7754              1383.6653              1399.2474
 Red. masses --      1.3869                 1.3886                 1.2360
 Frc consts  --      1.5287                 1.5664                 1.4258
 IR Inten    --      1.0209                 3.8991                 1.7306

                     40                     41                     42
                      A                      A                      A
 Frequencies --   1400.4199              1401.9069              1421.8564
 Red. masses --      1.2280                 1.2275                 1.2235
 Frc consts  --      1.4189                 1.4214                 1.4574
 IR Inten    --      6.3469                15.4742                 2.8540

                     43                     44                     45
                      A                      A                      A
 Frequencies --   1431.6010              1481.1922              1482.8680
 Red. masses --      1.2331                 1.0632                 1.0504
 Frc consts  --      1.4890                 1.3744                 1.3608
 IR Inten    --      7.2564                 0.2846                 0.4006

                     46                     47                     48
                      A                      A                      A
 Frequencies --   1487.4128              1489.8146              1491.1173
 Red. masses --      1.0470                 1.0437                 1.0523
 Frc consts  --      1.3647                 1.3649                 1.3785
 IR Inten    --      0.0114                 0.0621                 1.5725

                     49                     50                     51
                      A                      A                      A
 Frequencies --   1495.7694              1504.5716              1507.3839
 Red. masses --      1.0527                 1.0519                 1.0539
 Frc consts  --      1.3877                 1.4029                 1.4109
 IR Inten    --      3.4809                 1.3367                 8.6217

                     52                     53                     54
                      A                      A                      A
 Frequencies --   1509.3753              1512.9752              1519.7808
 Red. masses --      1.0600                 1.0515                 1.0595
 Frc consts  --      1.4228                 1.4181                 1.4419
 IR Inten    --     14.2923                 1.0446                18.4095

                     55                     56                     57
                      A                      A                      A
 Frequencies --   3001.3527              3014.0067              3016.3744
 Red. masses --      1.0597                 1.0691                 1.0375
 Frc consts  --      5.6243                 5.7221                 5.5615
 IR Inten    --     15.9526                 0.8542                28.2491

                     58                     59                     60
                      A                      A                      A
 Frequencies --   3017.6533              3020.5491              3024.6982
 Red. masses --      1.0380                 1.0354                 1.0440
 Frc consts  --      5.5694                 5.5656                 5.6274
 IR Inten    --     43.9262                29.3720                56.1210

                     61                     62                     63
                      A                      A                      A
 Frequencies --   3028.6275              3036.1821              3072.9521
 Red. masses --      1.0381                 1.1006                 1.1008
 Frc consts  --      5.6104                 5.9779                 6.1244
 IR Inten    --      5.9817                28.4710                 2.6032

                     64                     65                     66
                      A                      A                      A
 Frequencies --   3078.3448              3078.7037              3080.7609
 Red. masses --      1.1020                 1.1020                 1.1001
 Frc consts  --      6.1528                 6.1541                 6.1520
 IR Inten    --      1.8506                 0.2824                45.3964

                     67                     68                     69
                      A                      A                      A
 Frequencies --   3082.9884              3085.6789              3086.4817
 Red. masses --      1.1015                 1.1008                 1.1013
 Frc consts  --      6.1683                 6.1752                 6.1815
 IR Inten    --     37.0483               107.4427                43.5225

                     70                     71                     72
                      A                      A                      A
 Frequencies --   3089.3635              3094.1955              3106.2152
 Red. masses --      1.1006                 1.1003                 1.0979
 Frc consts  --      6.1889                 6.2064                 6.2413
 IR Inten    --     29.2046                67.3116                23.1637

 - Thermochemistry -
 -------------------
 Temperature   298.150 Kelvin.  Pressure   1.00000 Atm.
 Atom     1 has atomic number  6 and mass  12.00000

 Molecular mass:   114.14085 amu.
 Principal axes and moments of inertia in atomic units:
                           1         2         3
     Eigenvalues --   618.137061493.989271661.86020
           X            1.00000   0.00026   0.00035
           Y           -0.00026   1.00000   0.00041
           Z           -0.00034  -0.00041   1.00000
 This molecule is an asymmetric top.
 Rotational symmetry number  1.
 Warning -- assumption of classical behavior for rotation
           may cause significant error
 Rotational temperatures (Kelvin)      0.14012     0.05797     0.05212
 Rotational constants (GHZ):           2.91965     1.20800     1.08598
 Zero-point vibrational energy     639880.4 (Joules/Mol)
                                  152.93509 (Kcal/Mol)
 Warning -- explicit consideration of  16 degrees of freedom as
           vibrations may cause significant error
 Vibrational temperatures:     73.04   136.44   270.43   321.83   333.73
          (Kelvin)            373.58   381.39   417.40   422.37   444.92
                              507.45   553.95   588.56   595.73   655.05
                              727.31  1067.27  1198.72  1256.45  1296.94
                             1337.13  1342.05  1352.92  1383.34  1387.34
                             1418.63  1489.46  1498.02  1608.68  1632.92
                             1713.82  1758.62  1772.32  1821.64  1886.16
                             1916.15  1967.92  1990.79  2013.20  2014.89
                             2017.03  2045.73  2059.75  2131.11  2133.52
                             2140.06  2143.51  2145.39  2152.08  2164.74
                             2168.79  2171.65  2176.83  2186.63  4318.28
                             4336.48  4339.89  4341.73  4345.90  4351.87
                             4357.52  4368.39  4421.29  4429.05  4429.57
                             4432.53  4435.73  4439.60  4440.76  4444.90
                             4451.86  4469.15

 Zero-point correction=                           0.243718 (Hartree/Particle)
 Thermal correction to Energy=                    0.254553
 Thermal correction to Enthalpy=                  0.255498
 Thermal correction to Gibbs Free Energy=         0.208703
 Sum of electronic and zero-point Energies=           -315.590223
 Sum of electronic and thermal Energies=              -315.579387
 Sum of electronic and thermal Enthalpies=            -315.578443
 Sum of electronic and thermal Free Energies=         -315.625238

                     E (Thermal)             CV                S
                      KCal/Mol        Cal/Mol-Kelvin    Cal/Mol-Kelvin
 Total                  159.735             41.185             98.488
 Electronic               0.000              0.000              0.000
 Translational            0.889              2.981             40.112
 Rotational               0.889              2.981             28.819
 Vibrational            157.957             35.223             29.557
 Vibration     1          0.595              1.977              4.787
 Vibration     2          0.603              1.953              3.558
 Vibration     3          0.633              1.856              2.248
 Vibration     4          0.649              1.805              1.929
 Vibration     5          0.653              1.792              1.864
 Vibration     6          0.668              1.746              1.664
 Vibration     7          0.671              1.737              1.628
 Vibration     8          0.686              1.692              1.473
 Vibration     9          0.688              1.686              1.453
 Vibration    10          0.699              1.656              1.366
 Vibration    11          0.729              1.570              1.154
 Vibration    12          0.754              1.502              1.019
 Vibration    13          0.773              1.451              0.930
 Vibration    14          0.778              1.440              0.912
 Vibration    15          0.814              1.349              0.780
 Vibration    16          0.861              1.238              0.645

 Optimization completed.
    -- Stationary point found.
 Normal termination of Gaussian 16 at Mon Jun 20 11:15:21 2022.
