 Gaussian 16, Revision B.01,

 ---------------------------------------
 # b3lyp/gen opt freq CPHF(Grid=OneStep)
 ---------------------------------------

 -------------------------------------
 2-methyl-1,3-butadiene, B3LYP/pcseg-2
 -------------------------------------
 Symbolic Z-matrix:
 Charge =  0 Multiplicity = 1

 SCF Done:  E(RB3LYP) =  -195.393169055     A.U. after   12 cycles
 Optimization completed.
    -- Stationary point found.
 Normal termination of Gaussian 16 at Fri Sep 29 14:27:36 2023.

 ------------------------------------------------------------------
 #N Geom=AllCheck Guess=TCheck SCRF=Check GenChk RB3LYP/ChkBas Freq
 ------------------------------------------------------------------

 Structure from the checkpoint file:  "isoprene.chk"
 -------------------------------------
 2-methyl-1,3-butadiene, B3LYP/pcseg-2
 -------------------------------------
 Charge =  0 Multiplicity = 1

 SCF Done:  E(RB3LYP) =  -195.393169055     A.U. after    1 cycles

  Exact polarizability:  60.194  -6.397  94.040  -0.000   0.000  41.269
 Approx polarizability:  81.610 -19.348 150.786   0.000  -0.000  60.865

                      1                      2                      3
                     A"                     A"                     A'
 Frequencies --    159.9148               198.5309               280.5795
 Red. masses --      2.0772                 1.0591                 2.5799
 Frc consts  --      0.0313                 0.0246                 0.1197
 IR Inten    --      0.0816                 0.4173                 0.9667

                      4                      5                      6
                     A"                     A'                     A'
 Frequencies --    410.5180               428.9896               538.6879
 Red. masses --      1.7070                 2.1572                 2.6198
 Frc consts  --      0.1695                 0.2339                 0.4479
 IR Inten    --     11.3434                 1.6099                 0.0624

                      7                      8                      9
                     A"                     A"                     A'
 Frequencies --    645.4623               787.0155               792.4572
 Red. masses --      1.1880                 1.3562                 3.1262
 Frc consts  --      0.2916                 0.4949                 1.1567
 IR Inten    --      0.0669                 0.5690                 0.1653

                     10                     11                     12
                     A"                     A"                     A'
 Frequencies --    932.3192               943.8038               961.6363
 Red. masses --      1.3408                 1.3379                 1.6913
 Frc consts  --      0.6867                 0.7021                 0.9215
 IR Inten    --     43.1910                46.6871                 1.1171

                     13                     14                     15
                     A'                     A"                     A"
 Frequencies --   1014.0464              1031.4667              1070.5079
 Red. masses --      1.2633                 1.1642                 1.5038
 Frc consts  --      0.7654                 0.7298                 1.0154
 IR Inten    --      0.2204                14.9889                 0.0416

                     16                     17                     18
                     A'                     A'                     A'
 Frequencies --   1091.9448              1329.5044              1331.3478
 Red. masses --      1.4791                 1.7007                 1.7920
 Frc consts  --      1.0391                 1.7711                 1.8714
 IR Inten    --      3.1564                 0.2730                 1.3884

                     19                     20                     21
                     A'                     A'                     A'
 Frequencies --   1411.9139              1432.5466              1462.6450
 Red. masses --      1.2621                 1.3393                 1.1818
 Frc consts  --      1.4824                 1.6193                 1.4896
 IR Inten    --      5.9253                 1.4797                 2.6612

                     22                     23                     24
                     A"                     A'                     A'
 Frequencies --   1481.0739              1502.6365              1657.0725
 Red. masses --      1.0439                 1.0769                 3.7915
 Frc consts  --      1.3492                 1.4326                 6.1341
 IR Inten    --      8.6995                 6.8605                31.6546

                     25                     26                     27
                     A'                     A'                     A"
 Frequencies --   1694.3253              3028.2560              3074.1044
 Red. masses --      4.6040                 1.0375                 1.0995
 Frc consts  --      7.7871                 5.6055                 6.1221
 IR Inten    --      2.7766                19.9430                14.8238

                     28                     29                     30
                     A'                     A'                     A'
 Frequencies --   3115.1198              3136.3235              3141.8871
 Red. masses --      1.0998                 1.0779                 1.0635
 Frc consts  --      6.2881                 6.2471                 6.1853
 IR Inten    --     17.2095                 6.3357                12.3052

                     31                     32                     33
                     A'                     A'                     A'
 Frequencies --   3151.5592              3222.5554              3230.0057
 Red. masses --      1.0653                 1.1160                 1.1155
 Frc consts  --      6.2340                 6.8281                 6.8571
 IR Inten    --      2.7439                11.0846                12.9209

 - Thermochemistry -
 -------------------
 Temperature   298.150 Kelvin.  Pressure   1.00000 Atm.
 Atom     1 has atomic number  6 and mass  12.00000

 Molecular mass:    68.06260 amu.
 Principal axes and moments of inertia in atomic units:
                           1         2         3
     Eigenvalues --   210.47635 431.17383 630.55680
           X            0.19016   0.98175   0.00000
           Y            0.98175  -0.19016   0.00000
           Z            0.00000   0.00000   1.00000
 This molecule is an asymmetric top.
 Rotational symmetry number  1.
 Rotational temperatures (Kelvin)      0.41151     0.20088     0.13736
 Rotational constants (GHZ):           8.57456     4.18565     2.86214
 Zero-point vibrational energy     297216.7 (Joules/Mol)
                                   71.03650 (Kcal/Mol)
 Warning -- explicit consideration of   6 degrees of freedom as
           vibrations may cause significant error
 Vibrational temperatures:    230.08   285.64   403.69   590.64   617.22
          (Kelvin)            775.05   928.68  1132.34  1140.17  1341.40
                             1357.92  1383.58  1458.99  1484.05  1540.22
                             1571.06  1912.86  1915.51  2031.43  2061.12
                             2104.42  2130.93  2161.96  2384.16  2437.76
                             4356.98  4422.95  4481.96  4512.47  4520.47
                             4534.39  4636.54  4647.26

 Zero-point correction=                           0.113204 (Hartree/Particle)
 Thermal correction to Energy=                    0.119060
 Thermal correction to Enthalpy=                  0.120004
 Thermal correction to Gibbs Free Energy=         0.084702
 Sum of electronic and zero-point Energies=           -195.279965
 Sum of electronic and thermal Energies=              -195.274109
 Sum of electronic and thermal Enthalpies=            -195.273165
 Sum of electronic and thermal Free Energies=         -195.308467

                     E (Thermal)             CV                S
                      KCal/Mol        Cal/Mol-Kelvin    Cal/Mol-Kelvin
 Total                   74.711             21.102             74.299
 Electronic               0.000              0.000              0.000
 Translational            0.889              2.981             38.571
 Rotational               0.889              2.981             25.551
 Vibrational             72.934             15.140             10.177
 Vibration     1          0.622              1.891              2.551
 Vibration     2          0.637              1.842              2.147
 Vibration     3          0.680              1.710              1.530
 Vibration     4          0.775              1.447              0.925
 Vibration     5          0.790              1.407              0.862
 Vibration     6          0.894              1.164              0.568

 Optimization completed.
    -- Stationary point found.
 Normal termination of Gaussian 16 at Fri Sep 29 14:39:10 2023.
 Gaussian 16:  ES64L-G16RevB.01 20-Dec-2017

 ---------------------------------
 # rohf/gen geom=check guess=check
 ---------------------------------

 ----------------------------------------
 2-methyl-1,3-butadiene, ROHF/cc-pVTZ-F12
 ----------------------------------------
 Structure from the checkpoint file:  "isoprene.chk"
 Charge =  0 Multiplicity = 1

                         Standard orientation:
 ---------------------------------------------------------------------
 Center     Atomic      Atomic             Coordinates (Angstroms)
 Number     Number       Type             X           Y           Z
 ---------------------------------------------------------------------
      1          6           0       -0.590379    1.724998    0.000000
      2          6           0        0.000000    0.523821    0.000000
      3          6           0       -0.821594   -0.688115    0.000000
      4          6           0       -0.371575   -1.943997    0.000000
      5          6           0        1.497875    0.382972    0.000000
      6          1           0       -1.668189    1.822683    0.000000
      7          1           0       -0.016438    2.641619    0.000000
      8          1           0       -1.893636   -0.519276    0.000000
      9          1           0        0.683541   -2.181497    0.000000
     10          1           0       -1.054839   -2.781578    0.000000
     11          1           0        1.981945    1.357553    0.000000
     12          1           0        1.840828   -0.168787    0.877830
     13          1           0        1.840828   -0.168787   -0.877830
 ---------------------------------------------------------------------

 SCF Done:  E(ROHF) =  -194.040245258     A.U. after   11 cycles

 The electronic state is 1-A'.
 Alpha  occ. eigenvalues --  -11.24311 -11.23514 -11.22502 -11.22093 -11.22064
 Alpha  occ. eigenvalues --   -1.10994  -1.01020  -0.93983  -0.82104  -0.71705
 Alpha  occ. eigenvalues --   -0.65135  -0.63220  -0.57414  -0.55973  -0.54389
 Alpha  occ. eigenvalues --   -0.52312  -0.48272  -0.42507  -0.32214
 Alpha virt. eigenvalues --    0.04925   0.04998   0.05207   0.06473   0.07020
 Alpha virt. eigenvalues --    0.07853   0.09474   0.09628   0.09935   0.10826
 Alpha virt. eigenvalues --    0.11126   0.11385   0.13004   0.14215   0.14723

 Mulliken charges and spin densities:
               1          2
     1  C   -0.413280  -0.000000
     2  C    0.241859  -0.000000
     3  C   -0.168014  -0.000000
     4  C   -0.353507  -0.000000
     5  C   -0.377262  -0.000000
     6  H    0.129869  -0.000000
     7  H    0.146337  -0.000000
     8  H    0.151626  -0.000000
     9  H    0.148632  -0.000000
    10  H    0.153751  -0.000000
    11  H    0.109825  -0.000000
    12  H    0.115082  -0.000000
    13  H    0.115082  -0.000000
 Sum of Mulliken charges =  -0.00000  -0.00000

 Dipole moment (field-independent basis, Debye):
    X=              0.2731    Y=             -0.0217    Z=             -0.0000  Tot=              0.2740
 Quadrupole moment (field-independent basis, Debye-Ang):
   XX=            -29.9171   YY=            -30.3493   ZZ=            -35.9293
   XY=             -0.0524   XZ=              0.0000   YZ=             -0.0000

 Normal termination of Gaussian 16 at Fri Sep 29 14:43:18 2023.
