 Gaussian 16, Revision B.01,
 Gaussian 16:  ES64L-G16RevB.01 20-Dec-2017

 --------------------
 # b3lyp/gen opt freq
 --------------------

 -------------------------------------
 2-methyl-1,3-butadiene, B3LYP/pcseg-2
 -------------------------------------
 Symbolic Z-matrix:
 Charge =  0 Multiplicity = 1

 SCF Done:  E(RB3LYP) =  -195.393082651     A.U. after   12 cycles
 SCF Done:  E(RB3LYP) =  -195.393168233     A.U. after    8 cycles
 SCF Done:  E(RB3LYP) =  -195.393169055     A.U. after    6 cycles
 Optimization completed.
    -- Stationary point found.
 Normal termination of Gaussian 16 at Wed Jun 15 21:01:51 2022.

 ------------------------------------------------------------------
 #N Geom=AllCheck Guess=TCheck SCRF=Check GenChk RB3LYP/ChkBas Freq
 ------------------------------------------------------------------

 Structure from the checkpoint file:  "/wrk/irikura/Gau-24616.chk"
 -------------------------------------
 2-methyl-1,3-butadiene, B3LYP/pcseg-2
 -------------------------------------
 Charge =  0 Multiplicity = 1

                         Standard orientation:
 ---------------------------------------------------------------------
 Center     Atomic      Atomic             Coordinates (Angstroms)
 Number     Number       Type             X           Y           Z
 ---------------------------------------------------------------------
      1          6           0       -0.590379    1.724998    0.000000
      2          6           0        0.000000    0.523821    0.000000
      3          6           0       -0.821594   -0.688115    0.000000
      4          6           0       -0.371575   -1.943997    0.000000
      5          6           0        1.497875    0.382972    0.000000
      6          1           0       -1.668189    1.822683    0.000000
      7          1           0       -0.016438    2.641619    0.000000
      8          1           0       -1.893636   -0.519276    0.000000
      9          1           0        0.683541   -2.181497    0.000000
     10          1           0       -1.054839   -2.781578    0.000000
     11          1           0        1.981945    1.357553    0.000000
     12          1           0        1.840828   -0.168787    0.877830
     13          1           0        1.840828   -0.168787   -0.877830
 ---------------------------------------------------------------------

 SCF Done:  E(RB3LYP) =  -195.393169055     A.U. after    1 cycles

 The electronic state is 1-A'.
 Alpha  occ. eigenvalues --  -10.18763 -10.17837 -10.16918 -10.16885 -10.16646
 Alpha  occ. eigenvalues --   -0.82607  -0.74635  -0.69523  -0.60550  -0.52713
 Alpha  occ. eigenvalues --   -0.48105  -0.46455  -0.42371  -0.40580  -0.39031
 Alpha  occ. eigenvalues --   -0.37601  -0.34432  -0.31484  -0.24002
 Alpha virt. eigenvalues --   -0.03854   0.01861   0.03852   0.04258   0.05188
 Alpha virt. eigenvalues --    0.06655   0.07567   0.08630   0.10147   0.11030
 Alpha virt. eigenvalues --    0.12876   0.16235   0.16605   0.17450   0.18448

 Mulliken charges:
               1
     1  C   -0.133610
     2  C    0.143339
     3  C   -0.081503
     4  C   -0.104639
     5  C   -0.113905
     6  H    0.042279
     7  H    0.038852
     8  H    0.010817
     9  H    0.047028
    10  H    0.046071
    11  H    0.028492
    12  H    0.038389
    13  H    0.038389
 Sum of Mulliken charges =   0.00000

 Dipole moment (field-independent basis, Debye):
    X=              0.2862    Y=              0.0100    Z=             -0.0000  Tot=              0.2864
 Quadrupole moment (field-independent basis, Debye-Ang):
   XX=            -30.0597   YY=            -30.7407   ZZ=            -35.4683
   XY=              0.0983   XZ=             -0.0000   YZ=              0.0000

  Exact polarizability:  60.193  -6.396  94.038   0.000  -0.000  41.266
 Approx polarizability:  81.610 -19.348 150.786  -0.000   0.000  60.865

                      1                      2                      3
                     A"                     A"                     A'
 Frequencies --    159.9286               198.5298               280.5794
 Red. masses --      2.0773                 1.0591                 2.5799
 Frc consts  --      0.0313                 0.0246                 0.1197
 IR Inten    --      0.0815                 0.4172                 0.9665

                      4                      5                      6
                     A"                     A'                     A'
 Frequencies --    410.5336               428.9909               538.6931
 Red. masses --      1.7070                 2.1572                 2.6198
 Frc consts  --      0.1695                 0.2339                 0.4479
 IR Inten    --     11.3460                 1.6104                 0.0622

                      7                      8                      9
                     A"                     A"                     A'
 Frequencies --    645.4665               787.0172               792.4572
 Red. masses --      1.1880                 1.3562                 3.1261
 Frc consts  --      0.2916                 0.4949                 1.1567
 IR Inten    --      0.0672                 0.5693                 0.1653

                     10                     11                     12
                     A"                     A"                     A'
 Frequencies --    932.3200               943.8060               961.6375
 Red. masses --      1.3408                 1.3379                 1.6913
 Frc consts  --      0.6867                 0.7021                 0.9215
 IR Inten    --     43.1884                46.6869                 1.1175

                     13                     14                     15
                     A'                     A"                     A"
 Frequencies --   1014.0532              1031.4655              1070.5090
 Red. masses --      1.2633                 1.1642                 1.5038
 Frc consts  --      0.7654                 0.7298                 1.0154
 IR Inten    --      0.2204                14.9872                 0.0417

                     16                     17                     18
                     A'                     A'                     A'
 Frequencies --   1091.9455              1329.5053              1331.3531
 Red. masses --      1.4791                 1.7016                 1.7910
 Frc consts  --      1.0391                 1.7721                 1.8703
 IR Inten    --      3.1560                 0.2739                 1.3875

                     19                     20                     21
                     A'                     A'                     A'
 Frequencies --   1411.9165              1432.5472              1462.6514
 Red. masses --      1.2622                 1.3392                 1.1819
 Frc consts  --      1.4825                 1.6193                 1.4897
 IR Inten    --      5.9244                 1.4803                 2.6588

                     22                     23                     24
                     A"                     A'                     A'
 Frequencies --   1481.0727              1502.6426              1657.0849
 Red. masses --      1.0439                 1.0769                 3.7918
 Frc consts  --      1.3492                 1.4326                 6.1345
 IR Inten    --      8.6984                 6.8594                31.6582

                     25                     26                     27
                     A'                     A'                     A"
 Frequencies --   1694.3310              3028.2602              3074.1018
 Red. masses --      4.6039                 1.0375                 1.0995
 Frc consts  --      7.7871                 5.6055                 6.1221
 IR Inten    --      2.7780                19.9496                14.8264

                     28                     29                     30
                     A'                     A'                     A'
 Frequencies --   3115.1195              3136.3308              3141.8853
 Red. masses --      1.0998                 1.0779                 1.0635
 Frc consts  --      6.2881                 6.2471                 6.1853
 IR Inten    --     17.2072                 6.3377                12.3063

                     31                     32                     33
                     A'                     A'                     A'
 Frequencies --   3151.5544              3222.5545              3230.0019
 Red. masses --      1.0653                 1.1160                 1.1155
 Frc consts  --      6.2340                 6.8281                 6.8571
 IR Inten    --      2.7433                11.0833                12.9191

 - Thermochemistry -
 -------------------
 Temperature   298.150 Kelvin.  Pressure   1.00000 Atm.
 Atom     1 has atomic number  6 and mass  12.00000

 Molecular mass:    68.06260 amu.
 Principal axes and moments of inertia in atomic units:
                           1         2         3
     Eigenvalues --   210.47639 431.17385 630.55686
           X            0.19016   0.98175   0.00000
           Y            0.98175  -0.19016   0.00000
           Z           -0.00000   0.00000   1.00000
 This molecule is an asymmetric top.
 Rotational symmetry number  1.
 Rotational temperatures (Kelvin)      0.41151     0.20088     0.13736
 Rotational constants (GHZ):           8.57455     4.18565     2.86214
 Zero-point vibrational energy     297217.3 (Joules/Mol)
                                   71.03663 (Kcal/Mol)
 Warning -- explicit consideration of   6 degrees of freedom as
           vibrations may cause significant error
 Vibrational temperatures:    230.10   285.64   403.69   590.67   617.22
          (Kelvin)            775.06   928.68  1132.34  1140.17  1341.40
                             1357.93  1383.58  1459.00  1484.05  1540.22
                             1571.07  1912.86  1915.52  2031.43  2061.12
                             2104.43  2130.93  2161.97  2384.18  2437.76
                             4356.99  4422.95  4481.96  4512.48  4520.47
                             4534.38  4636.54  4647.25

 Zero-point correction=                           0.113204 (Hartree/Particle)
 Thermal correction to Energy=                    0.119060
 Thermal correction to Enthalpy=                  0.120004
 Thermal correction to Gibbs Free Energy=         0.084703
 Sum of electronic and zero-point Energies=           -195.279965
 Sum of electronic and thermal Energies=              -195.274109
 Sum of electronic and thermal Enthalpies=            -195.273165
 Sum of electronic and thermal Free Energies=         -195.308466

                     E (Thermal)             CV                S
                      KCal/Mol        Cal/Mol-Kelvin    Cal/Mol-Kelvin
 Total                   74.711             21.102             74.299
 Electronic               0.000              0.000              0.000
 Translational            0.889              2.981             38.571
 Rotational               0.889              2.981             25.551
 Vibrational             72.934             15.140             10.176
 Vibration     1          0.622              1.891              2.551
 Vibration     2          0.637              1.842              2.147
 Vibration     3          0.680              1.710              1.530
 Vibration     4          0.775              1.447              0.925
 Vibration     5          0.790              1.407              0.862
 Vibration     6          0.894              1.164              0.568

 Optimization completed.
    -- Stationary point found.
 Normal termination of Gaussian 16 at Wed Jun 15 21:04:42 2022.
