 Gaussian 16, Revision B.01,

 ---------------------------------------
 # b3lyp/gen opt freq CPHF(Grid=OneStep)
 ---------------------------------------

 ----------------------
 isourea, B3LYP/pcseg-2
 ----------------------
 Symbolic Z-matrix:
 Charge =  0 Multiplicity = 1

 SCF Done:  E(RB3LYP) =  -225.349671517     A.U. after   13 cycles
 Optimization completed.
    -- Stationary point found.
 Normal termination of Gaussian 16 at Fri Sep 29 02:55:26 2023.

 ------------------------------------------------------------------
 #N Geom=AllCheck Guess=TCheck SCRF=Check GenChk RB3LYP/ChkBas Freq
 ------------------------------------------------------------------

 Structure from the checkpoint file:  "isourea.chk"
 ----------------------
 isourea, B3LYP/pcseg-2
 ----------------------
 Charge =  0 Multiplicity = 1

 SCF Done:  E(RB3LYP) =  -225.349671517     A.U. after    1 cycles

  Exact polarizability:  38.768   2.892  39.124   0.080   0.095  23.157
 Approx polarizability:  52.429   6.359  57.674   0.447   0.350  31.559

                      1                      2                      3
                      A                      A                      A
 Frequencies --    362.4288               418.4164               496.0834
 Red. masses --      1.0642                 1.2239                 2.5772
 Frc consts  --      0.0824                 0.1262                 0.3737
 IR Inten    --     28.9722               256.5186                17.4218

                      4                      5                      6
                      A                      A                      A
 Frequencies --    543.0895               556.1777               735.5310
 Red. masses --      1.1291                 2.9638                10.3426
 Frc consts  --      0.1962                 0.5402                 3.2967
 IR Inten    --     90.7435                48.0505                30.1448

                      7                      8                      9
                      A                      A                      A
 Frequencies --    761.0115               959.0944              1086.2889
 Red. masses --      1.1541                 4.7116                 1.8815
 Frc consts  --      0.3938                 2.5535                 1.3081
 IR Inten    --     45.3567                36.3905               130.1279

                     10                     11                     12
                      A                      A                      A
 Frequencies --   1101.3276              1257.7920              1460.0588
 Red. masses --      1.1858                 1.4461                 2.7128
 Frc consts  --      0.8474                 1.3479                 3.4073
 IR Inten    --     59.4364               112.4440               101.8224

                     13                     14                     15
                      A                      A                      A
 Frequencies --   1636.2040              1738.4162              3535.0581
 Red. masses --      1.2132                 5.8885                 1.0756
 Frc consts  --      1.9137                10.4849                 7.9196
 IR Inten    --     81.7258               485.5685                 9.1640

                     16                     17                     18
                      A                      A                      A
 Frequencies --   3595.2956              3713.1200              3788.1974
 Red. masses --      1.0469                 1.1018                 1.0645
 Frc consts  --      7.9729                 8.9503                 9.0005
 IR Inten    --     35.6870                40.2148                77.0420

 - Thermochemistry -
 -------------------
 Temperature   298.150 Kelvin.  Pressure   1.00000 Atm.
 Atom     1 has atomic number  6 and mass  12.00000

 Molecular mass:    60.03236 amu.
 Principal axes and moments of inertia in atomic units:
                           1         2         3
     Eigenvalues --   161.27466 172.15010 332.59691
           X            0.96613  -0.25771  -0.01379
           Y            0.25771   0.96622  -0.00136
           Z            0.01368  -0.00224   0.99990
 This molecule is an asymmetric top.
 Rotational symmetry number  1.
 Rotational temperatures (Kelvin)      0.53706     0.50313     0.26042
 Rotational constants (GHZ):          11.19048    10.48353     5.42621
 Zero-point vibrational energy     165943.5 (Joules/Mol)
                                   39.66145 (Kcal/Mol)
 Warning -- explicit consideration of   5 degrees of freedom as
           vibrations may cause significant error
 Vibrational temperatures:    521.45   602.01   713.75   781.38   800.22
          (Kelvin)           1058.27  1094.93  1379.92  1562.93  1584.56
                             1809.68  2100.70  2354.13  2501.19  5086.16
                             5172.83  5342.35  5450.37

 Zero-point correction=                           0.063205 (Hartree/Particle)
 Thermal correction to Energy=                    0.067591
 Thermal correction to Enthalpy=                  0.068535
 Thermal correction to Gibbs Free Energy=         0.036936
 Sum of electronic and zero-point Energies=           -225.286467
 Sum of electronic and thermal Energies=              -225.282080
 Sum of electronic and thermal Enthalpies=            -225.281136
 Sum of electronic and thermal Free Energies=         -225.312736

                     E (Thermal)             CV                S
                      KCal/Mol        Cal/Mol-Kelvin    Cal/Mol-Kelvin
 Total                   42.414             15.290             66.507
 Electronic               0.000              0.000              0.000
 Translational            0.889              2.981             38.197
 Rotational               0.889              2.981             23.739
 Vibrational             40.637              9.329              4.571
 Vibration     1          0.736              1.550              1.112
 Vibration     2          0.781              1.430              0.897
 Vibration     3          0.852              1.259              0.668
 Vibration     4          0.898              1.155              0.559
 Vibration     5          0.912              1.126              0.532

                           ! Non-Optimized Parameters !
 Normal termination of Gaussian 16 at Fri Sep 29 02:58:49 2023.
 Gaussian 16:  ES64L-G16RevB.01 20-Dec-2017

 ---------------------------------
 # rohf/gen geom=check guess=check
 ---------------------------------

 -------------------------
 isourea, ROHF/cc-pVTZ-F12
 -------------------------
 Structure from the checkpoint file:  "isourea.chk"
 Charge =  0 Multiplicity = 1

                         Standard orientation:
 ---------------------------------------------------------------------
 Center     Atomic      Atomic             Coordinates (Angstroms)
 Number     Number       Type             X           Y           Z
 ---------------------------------------------------------------------
      1          6           0        0.050420    0.093354   -0.002014
      2          8           0        0.714935   -1.088528    0.005447
      3          7           0       -1.303640   -0.124927   -0.063888
      4          7           0        0.698083    1.185463    0.008353
      5          1           0       -1.906629    0.633650    0.196053
      6          1           0       -1.628940   -1.046616    0.171672
      7          1           0        0.098860    2.002071   -0.010546
      8          1           0        1.653607   -0.864760    0.000073
 ---------------------------------------------------------------------

 SCF Done:  E(ROHF) =  -224.070818140     A.U. after   11 cycles

 The electronic state is 1-A.
 Alpha  occ. eigenvalues --  -20.59791 -15.58667 -15.51898 -11.37527  -1.43654
 Alpha  occ. eigenvalues --   -1.24194  -1.15651  -0.84938  -0.73479  -0.72381
 Alpha  occ. eigenvalues --   -0.65995  -0.62223  -0.58765  -0.48223  -0.44042
 Alpha  occ. eigenvalues --   -0.38045
 Alpha virt. eigenvalues --    0.04373   0.06434   0.06623   0.07376   0.11187
 Alpha virt. eigenvalues --    0.11630   0.13755   0.14636   0.15431   0.16755
 Alpha virt. eigenvalues --    0.18846   0.18989   0.19767   0.20817   0.22898

 Mulliken charges and spin densities:
               1          2
     1  C    0.921402   0.000000
     2  O   -0.691269   0.000000
     3  N   -0.703303   0.000000
     4  N   -0.739508   0.000000
     5  H    0.272604   0.000000
     6  H    0.289308   0.000000
     7  H    0.213318   0.000000
     8  H    0.437448   0.000000
 Sum of Mulliken charges =   0.00000   0.00000

 Dipole moment (field-independent basis, Debye):
    X=             -2.3510    Y=             -0.4175    Z=              0.7187  Tot=              2.4936
 Quadrupole moment (field-independent basis, Debye-Ang):
   XX=            -19.4165   YY=            -23.7292   ZZ=            -26.1695
   XY=             -3.7775   XZ=             -1.6544   YZ=             -0.2334

 Normal termination of Gaussian 16 at Fri Sep 29 03:00:09 2023.
