 Gaussian 16, Revision B.01,
 Gaussian 16:  ES64L-G16RevB.01 20-Dec-2017

 --------------------
 # b3lyp/gen opt freq
 --------------------

 ----------------------
 isourea, B3LYP/pcseg-2
 ----------------------
 Symbolic Z-matrix:
 Charge =  0 Multiplicity = 1

 SCF Done:  E(RB3LYP) =  -225.349497986     A.U. after   13 cycles
 SCF Done:  E(RB3LYP) =  -225.349609555     A.U. after    9 cycles
 SCF Done:  E(RB3LYP) =  -225.349648296     A.U. after    9 cycles
 SCF Done:  E(RB3LYP) =  -225.349664735     A.U. after    8 cycles
 SCF Done:  E(RB3LYP) =  -225.349669469     A.U. after    8 cycles
 SCF Done:  E(RB3LYP) =  -225.349671517     A.U. after    8 cycles
 Optimization completed.
    -- Stationary point found.
 Normal termination of Gaussian 16 at Wed Sep 13 10:09:52 2023.

 ------------------------------------------------------------------
 #N Geom=AllCheck Guess=TCheck SCRF=Check GenChk RB3LYP/ChkBas Freq
 ------------------------------------------------------------------

 Structure from the checkpoint file:  "/wrk/irikura/Gau-447383.chk"
 ----------------------
 isourea, B3LYP/pcseg-2
 ----------------------
 Charge =  0 Multiplicity = 1

                         Standard orientation:
 ---------------------------------------------------------------------
 Center     Atomic      Atomic             Coordinates (Angstroms)
 Number     Number       Type             X           Y           Z
 ---------------------------------------------------------------------
      1          6           0        0.050420    0.093354   -0.002014
      2          8           0        0.714936   -1.088527    0.005447
      3          7           0       -1.303640   -0.124928   -0.063888
      4          7           0        0.698082    1.185464    0.008353
      5          1           0       -1.906629    0.633649    0.196053
      6          1           0       -1.628939   -1.046617    0.171672
      7          1           0        0.098859    2.002071   -0.010546
      8          1           0        1.653608   -0.864759    0.000073
 ---------------------------------------------------------------------

 SCF Done:  E(RB3LYP) =  -225.349671517     A.U. after    1 cycles

 The electronic state is 1-A.
 Alpha  occ. eigenvalues --  -19.16211 -14.34180 -14.27516 -10.29976  -1.09059
 Alpha  occ. eigenvalues --   -0.93657  -0.86462  -0.64357  -0.55140  -0.53765
 Alpha  occ. eigenvalues --   -0.49252  -0.44230  -0.40676  -0.31902  -0.28486
 Alpha  occ. eigenvalues --   -0.25583
 Alpha virt. eigenvalues --   -0.00374   0.03619   0.04312   0.04906   0.07467
 Alpha virt. eigenvalues --    0.15910   0.16926   0.17400   0.20616   0.24118
 Alpha virt. eigenvalues --    0.26773   0.28464   0.29120   0.30210   0.30934

 Mulliken charges:
               1
     1  C    0.474466
     2  O   -0.377001
     3  N   -0.295189
     4  N   -0.397625
     5  H    0.135306
     6  H    0.152371
     7  H    0.082678
     8  H    0.224995
 Sum of Mulliken charges =  -0.00000

 Dipole moment (field-independent basis, Debye):
    X=             -2.3218    Y=             -0.3335    Z=              0.6845  Tot=              2.4434
 Quadrupole moment (field-independent basis, Debye-Ang):
   XX=            -19.6702   YY=            -23.7738   ZZ=            -26.1807
   XY=             -3.6959   XZ=             -1.6013   YZ=             -0.2154

  Exact polarizability:  38.768   2.892  39.124   0.080   0.095  23.158
 Approx polarizability:  52.429   6.359  57.674   0.447   0.350  31.559

                      1                      2                      3
                      A                      A                      A
 Frequencies --    362.3956               418.4115               496.0851
 Red. masses --      1.0642                 1.2239                 2.5773
 Frc consts  --      0.0823                 0.1262                 0.3737
 IR Inten    --     28.9851               256.5095                17.4127

                      4                      5                      6
                      A                      A                      A
 Frequencies --    543.0996               556.1790               735.5319
 Red. masses --      1.1292                 2.9634                10.3425
 Frc consts  --      0.1962                 0.5401                 3.2967
 IR Inten    --     90.7427                48.0557                30.1422

                      7                      8                      9
                      A                      A                      A
 Frequencies --    761.0109               959.0919              1086.2945
 Red. masses --      1.1541                 4.7116                 1.8816
 Frc consts  --      0.3938                 2.5535                 1.3082
 IR Inten    --     45.3618                36.3940               130.1446

                     10                     11                     12
                      A                      A                      A
 Frequencies --   1101.3331              1257.7935              1460.0594
 Red. masses --      1.1858                 1.4461                 2.7128
 Frc consts  --      0.8474                 1.3479                 3.4073
 IR Inten    --     59.4209               112.4413               101.8207

                     13                     14                     15
                      A                      A                      A
 Frequencies --   1636.2027              1738.4192              3535.0580
 Red. masses --      1.2132                 5.8887                 1.0756
 Frc consts  --      1.9136                10.4852                 7.9196
 IR Inten    --     81.7240               485.5799                 9.1636

                     16                     17                     18
                      A                      A                      A
 Frequencies --   3595.3009              3713.1238              3788.1987
 Red. masses --      1.0469                 1.1018                 1.0645
 Frc consts  --      7.9729                 8.9503                 9.0005
 IR Inten    --     35.6863                40.2157                77.0475

 - Thermochemistry -
 -------------------
 Temperature   298.150 Kelvin.  Pressure   1.00000 Atm.
 Atom     1 has atomic number  6 and mass  12.00000

 Molecular mass:    60.03236 amu.
 Principal axes and moments of inertia in atomic units:
                           1         2         3
     Eigenvalues --   161.27464 172.15010 332.59689
           X            0.96613  -0.25770  -0.01379
           Y            0.25771   0.96622  -0.00136
           Z            0.01368  -0.00224   0.99990
 This molecule is an asymmetric top.
 Rotational symmetry number  1.
 Rotational temperatures (Kelvin)      0.53706     0.50313     0.26042
 Rotational constants (GHZ):          11.19048    10.48353     5.42621
 Zero-point vibrational energy     165943.5 (Joules/Mol)
                                   39.66145 (Kcal/Mol)
 Warning -- explicit consideration of   5 degrees of freedom as
           vibrations may cause significant error
 Vibrational temperatures:    521.41   602.00   713.76   781.40   800.22
          (Kelvin)           1058.27  1094.92  1379.92  1562.94  1584.57
                             1809.68  2100.70  2354.13  2501.20  5086.16
                             5172.84  5342.36  5450.37

 Zero-point correction=                           0.063205 (Hartree/Particle)
 Thermal correction to Energy=                    0.067591
 Thermal correction to Enthalpy=                  0.068535
 Thermal correction to Gibbs Free Energy=         0.036936
 Sum of electronic and zero-point Energies=           -225.286467
 Sum of electronic and thermal Energies=              -225.282080
 Sum of electronic and thermal Enthalpies=            -225.281136
 Sum of electronic and thermal Free Energies=         -225.312736

                     E (Thermal)             CV                S
                      KCal/Mol        Cal/Mol-Kelvin    Cal/Mol-Kelvin
 Total                   42.414             15.290             66.507
 Electronic               0.000              0.000              0.000
 Translational            0.889              2.981             38.197
 Rotational               0.889              2.981             23.739
 Vibrational             40.637              9.329              4.571
 Vibration     1          0.736              1.550              1.112
 Vibration     2          0.781              1.430              0.897
 Vibration     3          0.852              1.259              0.668
 Vibration     4          0.898              1.155              0.559
 Vibration     5          0.912              1.126              0.532

                           ! Non-Optimized Parameters !
 Normal termination of Gaussian 16 at Wed Sep 13 10:11:00 2023.
