 Gaussian 16, Revision B.01,

 ---------------------------------------
 # b3lyp/gen opt freq CPHF(Grid=OneStep)
 ---------------------------------------

 ---------------------
 Ketene, B3LYP/pcseg-2
 ---------------------
 Symbolic Z-matrix:
 Charge =  0 Multiplicity = 1

 SCF Done:  E(RB3LYP) =  -152.669469013     A.U. after   12 cycles
 Optimization completed.
    -- Stationary point found.
 Normal termination of Gaussian 16 at Thu Sep 28 15:34:41 2023.

 ------------------------------------------------------------------
 #N Geom=AllCheck Guess=TCheck SCRF=Check GenChk RB3LYP/ChkBas Freq
 ------------------------------------------------------------------

 Structure from the checkpoint file:  "ketene.chk"
 ---------------------
 Ketene, B3LYP/pcseg-2
 ---------------------
 Charge =  0 Multiplicity = 1

 SCF Done:  E(RB3LYP) =  -152.669469013     A.U. after    1 cycles

  Exact polarizability:  18.171   0.000  17.732  -0.000  -0.000  41.126
 Approx polarizability:  23.157   0.000  23.814  -0.000   0.000  71.386

                      1                      2                      3
                     B2                     B1                     B1
 Frequencies --    443.3217               554.1778               600.4433
 Red. masses --      2.2048                 9.1348                 1.2583
 Frc consts  --      0.2553                 1.6529                 0.2673
 IR Inten    --      2.7796                39.8819                96.3564

                      4                      5                      6
                     B2                     A1                     A1
 Frequencies --    990.1978              1171.2427              1412.6057
 Red. masses --      1.9231                 2.5803                 1.4796
 Frc consts  --      1.1109                 2.0855                 1.7396
 IR Inten    --      6.5075                 5.4088                18.3424

                      7                      8                      9
                     A1                     A1                     B2
 Frequencies --   2213.5932              3183.3135              3276.1917
 Red. masses --     11.9795                 1.0551                 1.1171
 Frc consts  --     34.5848                 6.2995                 7.0647
 IR Inten    --    677.1083                28.8539                 9.5925

 - Thermochemistry -
 -------------------
 Temperature   298.150 Kelvin.  Pressure   1.00000 Atm.
 Atom     1 has atomic number  6 and mass  12.00000

 Molecular mass:    42.01056 amu.
 Principal axes and moments of inertia in atomic units:
                           1         2         3
     Eigenvalues --     6.31810 174.38923 180.70733
           X            0.00000   0.00000   1.00000
           Y            0.00000   1.00000   0.00000
           Z            1.00000   0.00000   0.00000
 This molecule is an asymmetric top.
 Rotational symmetry number  2.
 Rotational temperatures (Kelvin)     13.70886     0.49667     0.47930
 Rotational constants (GHZ):         285.64627    10.34893     9.98709
 Zero-point vibrational energy      82812.0 (Joules/Mol)
                                   19.79255 (Kcal/Mol)
 Warning -- explicit consideration of   3 degrees of freedom as
           vibrations may cause significant error
 Vibrational temperatures:    637.84   797.34   863.90  1424.67  1685.16
          (Kelvin)           2032.42  3184.87  4580.08  4713.71

 Zero-point correction=                           0.031541 (Hartree/Particle)
 Thermal correction to Energy=                    0.035055
 Thermal correction to Enthalpy=                  0.035999
 Thermal correction to Gibbs Free Energy=         0.008610
 Sum of electronic and zero-point Energies=           -152.637928
 Sum of electronic and thermal Energies=              -152.634414
 Sum of electronic and thermal Enthalpies=            -152.633470
 Sum of electronic and thermal Free Energies=         -152.660859

                     E (Thermal)             CV                S
                      KCal/Mol        Cal/Mol-Kelvin    Cal/Mol-Kelvin
 Total                   21.997             10.218             57.644
 Electronic               0.000              0.000              0.000
 Translational            0.889              2.981             37.133
 Rotational               0.889              2.981             18.549
 Vibrational             20.220              4.256              1.962
 Vibration     1          0.803              1.376              0.816
 Vibration     2          0.910              1.131              0.536
 Vibration     3          0.959              1.031              0.449

 Optimization completed.
    -- Stationary point found.
 Normal termination of Gaussian 16 at Thu Sep 28 15:35:21 2023.
 Gaussian 16:  ES64L-G16RevB.01 20-Dec-2017

 ---------------------------------
 # rohf/gen geom=check guess=check
 ---------------------------------

 ------------------------
 Ketene, ROHF/cc-pVTZ-F12
 ------------------------
 Structure from the checkpoint file:  "ketene.chk"
 Charge =  0 Multiplicity = 1

                         Standard orientation:
 ---------------------------------------------------------------------
 Center     Atomic      Atomic             Coordinates (Angstroms)
 Number     Number       Type             X           Y           Z
 ---------------------------------------------------------------------
      1          6           0        0.000000   -0.000000   -1.205313
      2          6           0        0.000000    0.000000    0.102501
      3          8           0        0.000000    0.000000    1.261752
      4          1           0        0.000000    0.936886   -1.738575
      5          1           0       -0.000000   -0.936886   -1.738575
 ---------------------------------------------------------------------

 SCF Done:  E(ROHF) =  -151.795761904     A.U. after   11 cycles

 The electronic state is 1-A1.
 Alpha  occ. eigenvalues --  -20.62782 -11.38250 -11.23884  -1.47635  -1.05582
 Alpha  occ. eigenvalues --   -0.76066  -0.68336  -0.65822  -0.64590  -0.56316
 Alpha  occ. eigenvalues --   -0.36820
 Alpha virt. eigenvalues --    0.04433   0.06060   0.06809   0.07803   0.08858
 Alpha virt. eigenvalues --    0.09836   0.10390   0.12701   0.18335   0.19830
 Alpha virt. eigenvalues --    0.20048   0.20293   0.22654   0.23844   0.24960

 Mulliken charges and spin densities:
               1          2
     1  C   -0.318205   0.000000
     2  C    0.381160   0.000000
     3  O   -0.434171   0.000000
     4  H    0.185608   0.000000
     5  H    0.185608   0.000000
 Sum of Mulliken charges =  -0.00000   0.00000

 Dipole moment (field-independent basis, Debye):
    X=             -0.0000    Y=             -0.0000    Z=             -1.7802  Tot=              1.7802
 Quadrupole moment (field-independent basis, Debye-Ang):
   XX=            -19.2019   YY=            -15.4745   ZZ=            -18.5440
   XY=              0.0000   XZ=              0.0000   YZ=              0.0000

 Normal termination of Gaussian 16 at Thu Sep 28 15:35:30 2023.
