 Gaussian 16, Revision B.01,
 Gaussian 16:  ES64L-G16RevB.01 20-Dec-2017

 --------------------
 # b3lyp/gen opt freq
 --------------------

 ---------------------
 Ketene, B3LYP/pcseg-2
 ---------------------
 Symbolic Z-matrix:
 Charge =  0 Multiplicity = 1

 SCF Done:  E(RB3LYP) =  -152.565851954     A.U. after   12 cycles
 SCF Done:  E(RB3LYP) =  -152.612679244     A.U. after   12 cycles
 SCF Done:  E(RB3LYP) =  -152.655374698     A.U. after   12 cycles
 SCF Done:  E(RB3LYP) =  -152.668640745     A.U. after   12 cycles
 SCF Done:  E(RB3LYP) =  -152.669411794     A.U. after   11 cycles
 SCF Done:  E(RB3LYP) =  -152.669467570     A.U. after    8 cycles
 SCF Done:  E(RB3LYP) =  -152.669469013     A.U. after    7 cycles
 Optimization completed.
    -- Stationary point found.
 Normal termination of Gaussian 16 at Thu Feb  3 00:06:25 2022.

 ------------------------------------------------------------------
 #N Geom=AllCheck Guess=TCheck SCRF=Check GenChk RB3LYP/ChkBas Freq
 ------------------------------------------------------------------

 Structure from the checkpoint file:  "/wrk/irikura/Gau-24175.chk"
 ---------------------
 Ketene, B3LYP/pcseg-2
 ---------------------
 Charge =  0 Multiplicity = 1

                         Standard orientation:
 ---------------------------------------------------------------------
 Center     Atomic      Atomic             Coordinates (Angstroms)
 Number     Number       Type             X           Y           Z
 ---------------------------------------------------------------------
      1          6           0        0.000000    0.000000   -1.205313
      2          6           0       -0.000000    0.000000    0.102501
      3          8           0       -0.000000    0.000000    1.261752
      4          1           0        0.000000    0.936886   -1.738575
      5          1           0       -0.000000   -0.936886   -1.738575
 ---------------------------------------------------------------------

 SCF Done:  E(RB3LYP) =  -152.669469013     A.U. after    1 cycles

 The electronic state is 1-A1.
 Alpha  occ. eigenvalues --  -19.19466 -10.30078 -10.18408  -1.12825  -0.78638
 Alpha  occ. eigenvalues --   -0.54909  -0.49922  -0.49709  -0.46323  -0.41695
 Alpha  occ. eigenvalues --   -0.25530
 Alpha virt. eigenvalues --   -0.04688   0.01424   0.04327   0.06762   0.08162
 Alpha virt. eigenvalues --    0.14240   0.15984   0.19009   0.21916   0.23354
 Alpha virt. eigenvalues --    0.25778   0.32571   0.33965   0.37778   0.38133

 Mulliken charges:
               1
     1  C   -0.273502
     2  C    0.358484
     3  O   -0.272628
     4  H    0.093823
     5  H    0.093823
 Sum of Mulliken charges =   0.00000

 Dipole moment (field-independent basis, Debye):
    X=             -0.0000    Y=              0.0000    Z=             -1.5061  Tot=              1.5061
 Quadrupole moment (field-independent basis, Debye-Ang):
   XX=            -19.1414   YY=            -15.4445   ZZ=            -18.3224
   XY=              0.0000   XZ=              0.0000   YZ=             -0.0000

  Exact polarizability:  18.171   0.000  17.732  -0.000  -0.000  41.127
 Approx polarizability:  23.157   0.000  23.814  -0.000   0.000  71.386

                      1                      2                      3
                     B2                     B1                     B1
 Frequencies --    443.3198               554.1780               600.4396
 Red. masses --      2.2048                 9.1341                 1.2583
 Frc consts  --      0.2553                 1.6528                 0.2673
 IR Inten    --      2.7796                39.8858                96.3555

                      4                      5                      6
                     B2                     A1                     A1
 Frequencies --    990.1975              1171.2418              1412.6038
 Red. masses --      1.9231                 2.5803                 1.4796
 Frc consts  --      1.1109                 2.0855                 1.7396
 IR Inten    --      6.5076                 5.4095                18.3411

                      7                      8                      9
                     A1                     A1                     B2
 Frequencies --   2213.6027              3183.3152              3276.1939
 Red. masses --     11.9794                 1.0551                 1.1171
 Frc consts  --     34.5849                 6.2995                 7.0648
 IR Inten    --    677.1392                28.8546                 9.5921

 - Thermochemistry -
 -------------------
 Temperature   298.150 Kelvin.  Pressure   1.00000 Atm.
 Atom     1 has atomic number  6 and mass  12.00000

 Molecular mass:    42.01056 amu.
 Principal axes and moments of inertia in atomic units:
                           1         2         3
     Eigenvalues --     6.31809 174.38927 180.70736
           X            0.00000  -0.00000   1.00000
           Y            0.00000   1.00000   0.00000
           Z            1.00000  -0.00000   0.00000
 This molecule is an asymmetric top.
 Rotational symmetry number  2.
 Rotational temperatures (Kelvin)     13.70887     0.49667     0.47930
 Rotational constants (GHZ):         285.64657    10.34892     9.98709
 Zero-point vibrational energy      82812.0 (Joules/Mol)
                                   19.79255 (Kcal/Mol)
 Warning -- explicit consideration of   3 degrees of freedom as
           vibrations may cause significant error
 Vibrational temperatures:    637.84   797.34   863.90  1424.67  1685.16
          (Kelvin)           2032.42  3184.88  4580.08  4713.71

 Zero-point correction=                           0.031541 (Hartree/Particle)
 Thermal correction to Energy=                    0.035055
 Thermal correction to Enthalpy=                  0.035999
 Thermal correction to Gibbs Free Energy=         0.008610
 Sum of electronic and zero-point Energies=           -152.637928
 Sum of electronic and thermal Energies=              -152.634414
 Sum of electronic and thermal Enthalpies=            -152.633470
 Sum of electronic and thermal Free Energies=         -152.660859

                     E (Thermal)             CV                S
                      KCal/Mol        Cal/Mol-Kelvin    Cal/Mol-Kelvin
 Total                   21.997             10.218             57.644
 Electronic               0.000              0.000              0.000
 Translational            0.889              2.981             37.133
 Rotational               0.889              2.981             18.549
 Vibrational             20.220              4.256              1.962
 Vibration     1          0.803              1.376              0.816
 Vibration     2          0.910              1.131              0.536
 Vibration     3          0.959              1.031              0.449

 Optimization completed.
    -- Stationary point found.
 Normal termination of Gaussian 16 at Thu Feb  3 00:07:42 2022.
