 Gaussian 16, Revision B.01,
 Gaussian 16:  ES64L-G16RevB.01 20-Dec-2017

 --------------------
 # b3lyp/gen opt freq
 --------------------

 -----------------------------
 3-chlorophenyl, B3LYP/pcseg-2
 -----------------------------
 Symbolic Z-matrix:
 Charge =  0 Multiplicity = 2

 SCF Done:  E(UB3LYP) =  -691.284702765     A.U. after   18 cycles
 SCF Done:  E(UB3LYP) =  -691.284804958     A.U. after   12 cycles
 SCF Done:  E(UB3LYP) =  -691.284807704     A.U. after    7 cycles
 Optimization completed.
    -- Stationary point found.
 Normal termination of Gaussian 16 at Fri Jun 17 14:19:28 2022.

 ------------------------------------------------------------------
 #N Geom=AllCheck Guess=TCheck SCRF=Check GenChk UB3LYP/ChkBas Freq
 ------------------------------------------------------------------

 Structure from the checkpoint file:  "/wrk/irikura/Gau-6550.chk"
 -----------------------------
 3-chlorophenyl, B3LYP/pcseg-2
 -----------------------------
 Charge =  0 Multiplicity = 2

                         Standard orientation:
 ---------------------------------------------------------------------
 Center     Atomic      Atomic             Coordinates (Angstroms)
 Number     Number       Type             X           Y           Z
 ---------------------------------------------------------------------
      1          6           0       -0.265336   -2.310754   -0.000000
      2          1           0       -0.379397   -3.385774   -0.000000
      3          6           0       -1.332334   -1.452036   -0.000000
      4          6           0        1.000664   -1.716782    0.000000
      5          1           0        1.886294   -2.338897    0.000000
      6          6           0       -1.282091   -0.083900   -0.000000
      7          6           0        1.134704   -0.332415    0.000000
      8          1           0       -2.161395    0.544005   -0.000000
      9          1           0        2.112880    0.124562    0.000000
     10          6           0        0.000000    0.470908    0.000000
     11         17           0        0.176940    2.212117    0.000000
 ---------------------------------------------------------------------

 SCF Done:  E(UB3LYP) =  -691.284807704     A.U. after    1 cycles

 The electronic state is 2-A'.
 Alpha  occ. eigenvalues -- -101.52036 -10.25267 -10.21637 -10.20234 -10.20142
 Alpha  occ. eigenvalues --  -10.19720 -10.19545  -9.46548  -7.22712  -7.21843
 Alpha  occ. eigenvalues --   -7.21804  -0.90751  -0.85332  -0.77280  -0.75017
 Alpha  occ. eigenvalues --   -0.63033  -0.60851  -0.53817  -0.48923  -0.47143
 Alpha  occ. eigenvalues --   -0.45285  -0.41733  -0.41376  -0.38774  -0.34979
 Alpha  occ. eigenvalues --   -0.32720  -0.28254  -0.26297  -0.26140
 Alpha virt. eigenvalues --   -0.03732  -0.03060   0.00679   0.03197   0.04371
 Alpha virt. eigenvalues --    0.04982   0.07234   0.10568   0.11510   0.13238
 Alpha virt. eigenvalues --    0.15824   0.16129   0.17305   0.19062   0.20298

  Beta  occ. eigenvalues -- -101.52022 -10.25124 -10.20170 -10.20097 -10.20027
  Beta  occ. eigenvalues --  -10.19724 -10.19600  -9.46534  -7.22676  -7.21831
  Beta  occ. eigenvalues --   -7.21793  -0.90322  -0.84719  -0.76528  -0.74530
  Beta  occ. eigenvalues --   -0.62520  -0.59641  -0.53226  -0.48295  -0.46560
  Beta  occ. eigenvalues --   -0.44931  -0.41160  -0.40688  -0.38320  -0.34707
  Beta  occ. eigenvalues --   -0.32505  -0.27802  -0.26215
  Beta virt. eigenvalues --   -0.10581  -0.03772  -0.02121   0.00891   0.03309
  Beta virt. eigenvalues --    0.04567   0.05109   0.07282   0.11004   0.12167
  Beta virt. eigenvalues --    0.13939   0.15799   0.16286   0.17750   0.19118

 Mulliken charges and spin densities:
               1          2
     1  C   -0.016849  -0.052583
     2  H    0.045941   0.021294
     3  C   -0.027743   0.949333
     4  C   -0.044184   0.055278
     5  H    0.034497   0.012658
     6  C   -0.026017  -0.043877
     7  C   -0.033084  -0.035959
     8  H    0.059435   0.023661
     9  H    0.040420   0.001155
    10  C    0.096524   0.051227
    11  Cl  -0.128941   0.017813
 Sum of Mulliken charges =  -0.00000   1.00000

 Dipole moment (field-independent basis, Debye):
    X=              0.6461    Y=             -1.3461    Z=              0.0000  Tot=              1.4931
 Quadrupole moment (field-independent basis, Debye-Ang):
   XX=            -44.4687   YY=            -45.6597   ZZ=            -50.5143
   XY=             -2.5493   XZ=             -0.0000   YZ=             -0.0000

  Exact polarizability:  80.099   0.631 106.894   0.000   0.000  44.221
 Approx polarizability: 136.643   0.855 170.397   0.000  -0.000  68.820

                      1                      2                      3
                     A"                     A'                     A'
 Frequencies --    184.4708               299.5111               412.9069
 Red. masses --      5.1565                 6.1306                11.5400
 Frc consts  --      0.1034                 0.3240                 1.1592
 IR Inten    --      0.0788                 0.3375                 5.9905

                      4                      5                      6
                     A"                     A"                     A'
 Frequencies --    421.2961               490.9373               618.8472
 Red. masses --      3.1287                 4.6857                 7.1271
 Frc consts  --      0.3272                 0.6654                 1.6082
 IR Inten    --      4.8062                 0.4885                 3.5420

                      7                      8                      9
                     A"                     A'                     A"
 Frequencies --    662.5395               699.8542               764.9260
 Red. masses --      2.4511                 8.5130                 1.3280
 Frc consts  --      0.6339                 2.4567                 0.4578
 IR Inten    --     24.3275                17.5795                43.8560

                     10                     11                     12
                     A"                     A"                     A"
 Frequencies --    859.8546               901.4552               985.0069
 Red. masses --      1.4353                 1.3776                 1.3349
 Frc consts  --      0.6252                 0.6596                 0.7631
 IR Inten    --     10.6491                 1.8155                 0.3574

                     13                     14                     15
                     A'                     A'                     A'
 Frequencies --    994.9046              1049.5613              1078.9168
 Red. masses --      6.0250                 3.5845                 1.8950
 Frc consts  --      3.5137                 2.3265                 1.2997
 IR Inten    --     17.4119                16.0636                20.2296

                     16                     17                     18
                     A'                     A'                     A'
 Frequencies --   1100.8615              1177.2454              1284.1714
 Red. masses --      1.9297                 1.1343                 1.4697
 Frc consts  --      1.3779                 0.9262                 1.4280
 IR Inten    --     27.3743                 0.4039                 2.2016

                     19                     20                     21
                     A'                     A'                     A'
 Frequencies --   1298.1019              1432.5922              1465.3417
 Red. masses --      3.7884                 2.5876                 2.1563
 Frc consts  --      3.7612                 3.1289                 2.7279
 IR Inten    --      1.1855                 6.2158                47.5984

                     22                     23                     24
                     A'                     A'                     A'
 Frequencies --   1555.2416              1620.6440              3171.8559
 Red. masses --      5.5433                 7.0048                 1.0866
 Frc consts  --      7.8998                10.8398                 6.4410
 IR Inten    --      8.1733                32.3476                 4.0213

                     25                     26                     27
                     A'                     A'                     A'
 Frequencies --   3190.5607              3195.6722              3210.5120
 Red. masses --      1.0920                 1.0907                 1.0934
 Frc consts  --      6.5494                 6.5624                 6.6400
 IR Inten    --      3.9923                 0.3658                 1.2810

 - Thermochemistry -
 -------------------
 Temperature   298.150 Kelvin.  Pressure   1.00000 Atm.
 Atom     1 has atomic number  6 and mass  12.00000

 Molecular mass:   111.00015 amu.
 Principal axes and moments of inertia in atomic units:
                           1         2         3
     Eigenvalues --   293.567811135.604931429.17274
           X            0.06981   0.99756   0.00000
           Y            0.99756  -0.06981   0.00000
           Z           -0.00000  -0.00000   1.00000
 This molecule is an asymmetric top.
 Rotational symmetry number  1.
 Rotational temperatures (Kelvin)      0.29504     0.07627     0.06060
 Rotational constants (GHZ):           6.14761     1.58923     1.26279
 Zero-point vibrational energy     204129.5 (Joules/Mol)
                                   48.78812 (Kcal/Mol)
 Warning -- explicit consideration of   6 degrees of freedom as
           vibrations may cause significant error
 Vibrational temperatures:    265.41   430.93   594.08   606.15   706.35
          (Kelvin)            890.38   953.25  1006.93  1100.56  1237.14
                             1296.99  1417.21  1431.45  1510.08  1552.32
                             1583.89  1693.79  1847.64  1867.68  2061.18
                             2108.30  2237.65  2331.75  4563.59  4590.51
                             4597.86  4619.21

 Zero-point correction=                           0.077749 (Hartree/Particle)
 Thermal correction to Energy=                    0.083221
 Thermal correction to Enthalpy=                  0.084165
 Thermal correction to Gibbs Free Energy=         0.047381
 Sum of electronic and zero-point Energies=           -691.207059
 Sum of electronic and thermal Energies=              -691.201587
 Sum of electronic and thermal Enthalpies=            -691.200642
 Sum of electronic and thermal Free Energies=         -691.237427

                     E (Thermal)             CV                S
                      KCal/Mol        Cal/Mol-Kelvin    Cal/Mol-Kelvin
 Total                   52.222             20.619             77.419
 Electronic               0.000              0.000              1.377
 Translational            0.889              2.981             40.029
 Rotational               0.889              2.981             27.657
 Vibrational             50.445             14.657              8.355
 Vibration     1          0.631              1.861              2.283
 Vibration     2          0.692              1.675              1.420
 Vibration     3          0.777              1.442              0.916
 Vibration     4          0.784              1.424              0.888
 Vibration     5          0.847              1.270              0.681
 Vibration     6          0.979              0.992              0.418

 Optimization completed.
    -- Stationary point found.
 Normal termination of Gaussian 16 at Fri Jun 17 14:23:58 2022.
