 Gaussian 16, Revision B.01,

 ---------------------------------------
 # b3lyp/gen opt freq CPHF(Grid=OneStep)
 ---------------------------------------

 -----------------------------
 3-chlorophenyl, B3LYP/pcseg-2
 -----------------------------
 Symbolic Z-matrix:
 Charge =  0 Multiplicity = 2

 SCF Done:  E(UB3LYP) =  -691.284807704     A.U. after   18 cycles
 Optimization completed.
    -- Stationary point found.
 Normal termination of Gaussian 16 at Fri Sep 29 05:33:34 2023.

 ------------------------------------------------------------------
 #N Geom=AllCheck Guess=TCheck SCRF=Check GenChk UB3LYP/ChkBas Freq
 ------------------------------------------------------------------

 Structure from the checkpoint file:  "mC6H4Cl.chk"
 -----------------------------
 3-chlorophenyl, B3LYP/pcseg-2
 -----------------------------
 Charge =  0 Multiplicity = 2

 SCF Done:  E(UB3LYP) =  -691.284807704     A.U. after    1 cycles

  Exact polarizability:  80.099  -0.630 106.894   0.000  -0.000  44.222
 Approx polarizability: 136.643  -0.855 170.397   0.000  -0.000  68.820

                      1                      2                      3
                     A"                     A'                     A'
 Frequencies --    184.4616               299.5054               412.9082
 Red. masses --      5.1565                 6.1306                11.5401
 Frc consts  --      0.1034                 0.3240                 1.1592
 IR Inten    --      0.0788                 0.3375                 5.9903

                      4                      5                      6
                     A"                     A"                     A'
 Frequencies --    421.2946               490.9313               618.8501
 Red. masses --      3.1287                 4.6857                 7.1271
 Frc consts  --      0.3272                 0.6654                 1.6082
 IR Inten    --      4.8053                 0.4884                 3.5412

                      7                      8                      9
                     A"                     A'                     A"
 Frequencies --    662.5407               699.8564               764.9220
 Red. masses --      2.4511                 8.5129                 1.3280
 Frc consts  --      0.6339                 2.4567                 0.4578
 IR Inten    --     24.3263                17.5799                43.8554

                     10                     11                     12
                     A"                     A"                     A"
 Frequencies --    859.8483               901.4517               985.0064
 Red. masses --      1.4353                 1.3776                 1.3349
 Frc consts  --      0.6252                 0.6596                 0.7631
 IR Inten    --     10.6495                 1.8154                 0.3576

                     13                     14                     15
                     A'                     A'                     A'
 Frequencies --    994.9044              1049.5591              1078.9146
 Red. masses --      6.0249                 3.5846                 1.8951
 Frc consts  --      3.5137                 2.3265                 1.2997
 IR Inten    --     17.4099                16.0631                20.2328

                     16                     17                     18
                     A'                     A'                     A'
 Frequencies --   1100.8555              1177.2458              1284.1702
 Red. masses --      1.9296                 1.1343                 1.4698
 Frc consts  --      1.3778                 0.9262                 1.4281
 IR Inten    --     27.3690                 0.4036                 2.2012

                     19                     20                     21
                     A'                     A'                     A'
 Frequencies --   1298.1006              1432.5933              1465.3386
 Red. masses --      3.7878                 2.5876                 2.1562
 Frc consts  --      3.7606                 3.1289                 2.7279
 IR Inten    --      1.1860                 6.2172                47.6008

                     22                     23                     24
                     A'                     A'                     A'
 Frequencies --   1555.2401              1620.6486              3171.8595
 Red. masses --      5.5434                 7.0050                 1.0866
 Frc consts  --      7.8999                10.8401                 6.4410
 IR Inten    --      8.1733                32.3471                 4.0208

                     25                     26                     27
                     A'                     A'                     A'
 Frequencies --   3190.5621              3195.6766              3210.5058
 Red. masses --      1.0920                 1.0907                 1.0934
 Frc consts  --      6.5494                 6.5625                 6.6400
 IR Inten    --      3.9942                 0.3658                 1.2818

 - Thermochemistry -
 -------------------
 Temperature   298.150 Kelvin.  Pressure   1.00000 Atm.
 Atom     1 has atomic number  6 and mass  12.00000

 Molecular mass:   111.00015 amu.
 Principal axes and moments of inertia in atomic units:
                           1         2         3
     Eigenvalues --   293.567801135.605001429.17280
           X           -0.06981   0.99756   0.00000
           Y            0.99756   0.06981   0.00000
           Z            0.00000   0.00000   1.00000
 This molecule is an asymmetric top.
 Rotational symmetry number  1.
 Rotational temperatures (Kelvin)      0.29504     0.07627     0.06060
 Rotational constants (GHZ):           6.14761     1.58923     1.26279
 Zero-point vibrational energy     204129.3 (Joules/Mol)
                                   48.78807 (Kcal/Mol)
 Warning -- explicit consideration of   6 degrees of freedom as
           vibrations may cause significant error
 Vibrational temperatures:    265.40   430.92   594.08   606.15   706.34
          (Kelvin)            890.39   953.25  1006.94  1100.55  1237.13
                             1296.99  1417.20  1431.45  1510.08  1552.32
                             1583.89  1693.79  1847.63  1867.68  2061.18
                             2108.30  2237.64  2331.75  4563.60  4590.51
                             4597.87  4619.20

 Zero-point correction=                           0.077749 (Hartree/Particle)
 Thermal correction to Energy=                    0.083221
 Thermal correction to Enthalpy=                  0.084165
 Thermal correction to Gibbs Free Energy=         0.047381
 Sum of electronic and zero-point Energies=           -691.207059
 Sum of electronic and thermal Energies=              -691.201587
 Sum of electronic and thermal Enthalpies=            -691.200642
 Sum of electronic and thermal Free Energies=         -691.237427

                     E (Thermal)             CV                S
                      KCal/Mol        Cal/Mol-Kelvin    Cal/Mol-Kelvin
 Total                   52.222             20.619             77.419
 Electronic               0.000              0.000              1.377
 Translational            0.889              2.981             40.029
 Rotational               0.889              2.981             27.657
 Vibrational             50.445             14.657              8.356
 Vibration     1          0.631              1.861              2.283
 Vibration     2          0.692              1.675              1.420
 Vibration     3          0.777              1.442              0.916
 Vibration     4          0.784              1.424              0.888
 Vibration     5          0.847              1.270              0.681
 Vibration     6          0.979              0.992              0.418

 Optimization completed.
    -- Stationary point found.
 Normal termination of Gaussian 16 at Fri Sep 29 05:53:31 2023.
 Gaussian 16:  ES64L-G16RevB.01 20-Dec-2017

 ---------------------------------
 # rohf/gen geom=check guess=check
 ---------------------------------

 --------------------------------
 3-chlorophenyl, ROHF/cc-pVTZ-F12
 --------------------------------
 Structure from the checkpoint file:  "mC6H4Cl.chk"
 Charge =  0 Multiplicity = 2

                         Standard orientation:
 ---------------------------------------------------------------------
 Center     Atomic      Atomic             Coordinates (Angstroms)
 Number     Number       Type             X           Y           Z
 ---------------------------------------------------------------------
      1          6           0        0.265336   -2.310754    0.000000
      2          1           0        0.379398   -3.385774    0.000000
      3          6           0        1.332334   -1.452036    0.000000
      4          6           0       -1.000664   -1.716782    0.000000
      5          1           0       -1.886294   -2.338897    0.000000
      6          6           0        1.282091   -0.083900    0.000000
      7          6           0       -1.134704   -0.332415    0.000000
      8          1           0        2.161395    0.544005    0.000000
      9          1           0       -2.112880    0.124561    0.000000
     10          6           0        0.000000    0.470908    0.000000
     11         17           0       -0.176940    2.212117    0.000000
 ---------------------------------------------------------------------

 SCF Done:  E(ROHF) =  -689.078285327     A.U. after   19 cycles

 The electronic state is 2-A'.
 Alpha  occ. eigenvalues -- -104.84356 -11.31385 -11.26227 -11.25883 -11.25674
 Alpha  occ. eigenvalues --  -11.25206 -11.25146 -10.56858  -8.03557  -8.03403
 Alpha  occ. eigenvalues --   -8.03399  -1.19519  -1.12197  -1.02959  -1.00170
 Alpha  occ. eigenvalues --   -0.84201  -0.80417  -0.71006  -0.65447  -0.63072
 Alpha  occ. eigenvalues --   -0.60170  -0.55736  -0.55167  -0.52611  -0.47587
 Alpha  occ. eigenvalues --   -0.46133  -0.35815  -0.34406  -0.10489
 Alpha virt. eigenvalues --    0.04548   0.05308   0.05361   0.06986   0.07238
 Alpha virt. eigenvalues --    0.07602   0.08970   0.09285   0.09363   0.10255
 Alpha virt. eigenvalues --    0.10923   0.11734   0.11871   0.12175   0.12722

 Mulliken charges and spin densities:
               1          2
     1  C   -0.185091   0.020946
     2  H    0.175729   0.004787
     3  C   -0.034292   0.914066
     4  C   -0.171218   0.018954
     5  H    0.157124   0.003035
     6  C   -0.141884   0.014968
     7  C   -0.141363   0.000921
     8  H    0.189826   0.005124
     9  H    0.164546   0.000085
    10  C    0.092179   0.012558
    11  Cl  -0.105554   0.004555
 Sum of Mulliken charges =  -0.00000   1.00000

 Dipole moment (field-independent basis, Debye):
    X=             -0.5052    Y=             -1.6001    Z=              0.0000  Tot=              1.6780
 Quadrupole moment (field-independent basis, Debye-Ang):
   XX=            -44.0444   YY=            -45.7684   ZZ=            -51.3321
   XY=              2.3827   XZ=              0.0000   YZ=              0.0000

 Normal termination of Gaussian 16 at Fri Sep 29 06:06:12 2023.
