 Gaussian 16, Revision B.01,

 ---------------------------------------
 # b3lyp/gen opt freq CPHF(Grid=OneStep)
 ---------------------------------------

 -----------------------------
 dimethylaminyl, B3LYP/pcseg-2
 -----------------------------
 Symbolic Z-matrix:
 Charge =  0 Multiplicity = 2

 SCF Done:  E(UB3LYP) =  -134.567082171     A.U. after   13 cycles
 Optimization completed.
    -- Stationary point found.
 Normal termination of Gaussian 16 at Sun Oct  1 05:42:01 2023.

 ------------------------------------------------------------------
 #N Geom=AllCheck Guess=TCheck SCRF=Check GenChk UB3LYP/ChkBas Freq
 ------------------------------------------------------------------

 Structure from the checkpoint file:  "Me2N.chk"
 -----------------------------
 dimethylaminyl, B3LYP/pcseg-2
 -----------------------------
 Charge =  0 Multiplicity = 2

 SCF Done:  E(UB3LYP) =  -134.567082171     A.U. after    1 cycles

  Exact polarizability:  30.939  -0.000  41.632  -0.000   0.000  33.581
 Approx polarizability:  42.257   0.000  49.729   0.000   0.000  46.666

                      1                      2                      3
                     A2                     B1                     A1
 Frequencies --     90.9854               131.9956               432.3512
 Red. masses --      1.0181                 1.4465                 2.1865
 Frc consts  --      0.0050                 0.0148                 0.2408
 IR Inten    --      0.0000                 1.6529                 1.5843

                      4                      5                      6
                     A1                     B1                     A2
 Frequencies --    913.5500               931.4083              1010.1512
 Red. masses --      4.5452                 1.2491                 1.2292
 Frc consts  --      2.2350                 0.6385                 0.7390
 IR Inten    --      6.5369                 3.7298                 0.0000

                      7                      8                      9
                     B2                     A1                     B2
 Frequencies --   1020.1046              1208.6839              1209.3630
 Red. masses --      1.6582                 1.5775                 3.1363
 Frc consts  --      1.0167                 1.3578                 2.7026
 IR Inten    --      0.0209                 0.0343                 4.3230

                     10                     11                     12
                     B2                     A1                     B2
 Frequencies --   1389.9455              1410.4119              1462.7661
 Red. masses --      1.1099                 1.1219                 1.0781
 Frc consts  --      1.2633                 1.3149                 1.3591
 IR Inten    --      0.1116                18.6248                 0.1069

                     13                     14                     15
                     A2                     A1                     B1
 Frequencies --   1470.1332              1488.0112              1489.1335
 Red. masses --      1.0537                 1.0909                 1.0460
 Frc consts  --      1.3418                 1.4231                 1.3666
 IR Inten    --      0.0000                 1.1860                18.7771

                     16                     17                     18
                     B2                     A1                     A2
 Frequencies --   2938.4668              2948.9588              2975.4076
 Red. masses --      1.0399                 1.0405                 1.0975
 Frc consts  --      5.2902                 5.3310                 5.7248
 IR Inten    --     13.8138                35.9115                 0.0000

                     19                     20                     21
                     B1                     B2                     A1
 Frequencies --   2982.3692              3098.1717              3099.0970
 Red. masses --      1.0974                 1.0926                 1.0935
 Frc consts  --      5.7512                 6.1788                 6.1880
 IR Inten    --     65.8073                48.0792                11.8599

 - Thermochemistry -
 -------------------
 Temperature   298.150 Kelvin.  Pressure   1.00000 Atm.
 Atom     1 has atomic number  7 and mass  14.00307

 Molecular mass:    44.05002 amu.
 Principal axes and moments of inertia in atomic units:
                           1         2         3
     Eigenvalues --    44.46657 185.69417 207.86396
           X            0.00000   0.00000   1.00000
           Y            1.00000   0.00000   0.00000
           Z            0.00000   1.00000   0.00000
 This molecule is an asymmetric top.
 Rotational symmetry number  2.
 Rotational temperatures (Kelvin)      1.94784     0.46643     0.41669
 Rotational constants (GHZ):          40.58648     9.71889     8.68232
 Zero-point vibrational energy     201579.5 (Joules/Mol)
                                   48.17866 (Kcal/Mol)
 Warning -- explicit consideration of   3 degrees of freedom as
           vibrations may cause significant error
 Vibrational temperatures:    130.91   189.91   622.06  1314.39  1340.09
          (Kelvin)           1453.38  1467.70  1739.03  1740.00  1999.82
                             2029.27  2104.59  2115.19  2140.92  2142.53
                             4227.80  4242.89  4280.95  4290.96  4457.58
                             4458.91

 Zero-point correction=                           0.076778 (Hartree/Particle)
 Thermal correction to Energy=                    0.081554
 Thermal correction to Enthalpy=                  0.082498
 Thermal correction to Gibbs Free Energy=         0.050500
 Sum of electronic and zero-point Energies=           -134.490305
 Sum of electronic and thermal Energies=              -134.485528
 Sum of electronic and thermal Enthalpies=            -134.484584
 Sum of electronic and thermal Free Energies=         -134.516582

                     E (Thermal)             CV                S
                      KCal/Mol        Cal/Mol-Kelvin    Cal/Mol-Kelvin
 Total                   51.176             13.836             67.347
 Electronic               0.000              0.000              1.377
 Translational            0.889              2.981             37.274
 Rotational               0.889              2.981             20.689
 Vibrational             49.399              7.874              8.006
 Vibration     1          0.602              1.956              3.639
 Vibration     2          0.612              1.921              2.917
 Vibration     3          0.793              1.400              0.851

 Optimization completed.
    -- Stationary point found.
 Normal termination of Gaussian 16 at Sun Oct  1 05:45:31 2023.
 Gaussian 16:  ES64L-G16RevB.01 20-Dec-2017

 ---------------------------------
 # rohf/gen geom=check guess=check
 ---------------------------------

 --------------------------------
 dimethylaminyl, ROHF/cc-pVTZ-F12
 --------------------------------
 Structure from the checkpoint file:  "Me2N.chk"
 Charge =  0 Multiplicity = 2

                         Standard orientation:
 ---------------------------------------------------------------------
 Center     Atomic      Atomic             Coordinates (Angstroms)
 Number     Number       Type             X           Y           Z
 ---------------------------------------------------------------------
      1          7           0        0.000000    0.000000    0.630860
      2          6           0        0.000000    1.191810   -0.169225
      3          6           0       -0.000000   -1.191810   -0.169225
      4          1           0        0.000000    2.077626    0.463452
      5          1           0        0.880004    1.228826   -0.828056
      6          1           0       -0.880004    1.228826   -0.828056
      7          1           0       -0.000000   -2.077626    0.463452
      8          1           0        0.880004   -1.228826   -0.828056
      9          1           0       -0.880004   -1.228826   -0.828056
 ---------------------------------------------------------------------

 SCF Done:  E(ROHF) =  -133.680629206     A.U. after   13 cycles

 The electronic state is 2-B1.
 Alpha  occ. eigenvalues --  -15.55798 -11.24583 -11.24582  -1.17350  -0.95516
 Alpha  occ. eigenvalues --   -0.81048  -0.62295  -0.60005  -0.59939  -0.54140
 Alpha  occ. eigenvalues --   -0.51767  -0.40735  -0.08980
 Alpha virt. eigenvalues --    0.05037   0.05430   0.06516   0.06941   0.08753
 Alpha virt. eigenvalues --    0.09269   0.09690   0.15153   0.16025   0.16672
 Alpha virt. eigenvalues --    0.20640   0.21239   0.21728   0.24292   0.24581

 Mulliken charges and spin densities:
               1          2
     1  N   -0.311419   0.911974
     2  C   -0.140141   0.012410
     3  C   -0.140141   0.012410
     4  H    0.126495   0.000018
     5  H    0.084678   0.015793
     6  H    0.084678   0.015793
     7  H    0.126495   0.000018
     8  H    0.084678   0.015793
     9  H    0.084678   0.015793
 Sum of Mulliken charges =  -0.00000   1.00000

 Dipole moment (field-independent basis, Debye):
    X=             -0.0000    Y=             -0.0000    Z=             -1.7270  Tot=              1.7270
 Quadrupole moment (field-independent basis, Debye-Ang):
   XX=            -19.9416   YY=            -18.4073   ZZ=            -22.6582
   XY=             -0.0000   XZ=             -0.0000   YZ=             -0.0000

 Normal termination of Gaussian 16 at Sun Oct  1 05:46:00 2023.
