 Gaussian 16, Revision B.01,
 Gaussian 16:  ES64L-G16RevB.01 20-Dec-2017

 --------------------
 # b3lyp/gen opt freq
 --------------------

 -----------------------------------
 dimethylamino methyl, B3LYP/pcseg-2
 -----------------------------------
 Symbolic Z-matrix:
 Charge =  0 Multiplicity = 2

 SCF Done:  E(UB3LYP) =  -173.893731664     A.U. after   14 cycles
 SCF Done:  E(UB3LYP) =  -173.893975925     A.U. after   11 cycles
 SCF Done:  E(UB3LYP) =  -173.894010273     A.U. after    9 cycles
 SCF Done:  E(UB3LYP) =  -173.894013448     A.U. after    9 cycles
 Optimization completed.
    -- Stationary point found.
 Normal termination of Gaussian 16 at Thu Jun 16 14:14:44 2022.

 ------------------------------------------------------------------
 #N Geom=AllCheck Guess=TCheck SCRF=Check GenChk UB3LYP/ChkBas Freq
 ------------------------------------------------------------------

 Structure from the checkpoint file:  "/wrk/irikura/Gau-7157.chk"
 -----------------------------------
 dimethylamino methyl, B3LYP/pcseg-2
 -----------------------------------
 Charge =  0 Multiplicity = 2

                         Standard orientation:
 ---------------------------------------------------------------------
 Center     Atomic      Atomic             Coordinates (Angstroms)
 Number     Number       Type             X           Y           Z
 ---------------------------------------------------------------------
      1          7           0        0.171578    0.140729   -0.000000
      2          6           0       -0.528016    1.328576    0.000000
      3          6           0        0.171578   -0.638084    1.222295
      4          6           0        0.171578   -0.638084   -1.222295
      5          1           0       -0.578962    1.871670   -0.931070
      6          1           0       -0.578962    1.871670    0.931070
      7          1           0       -0.774797   -1.177400    1.369589
      8          1           0        0.324724    0.021211    2.075015
      9          1           0        0.983089   -1.365259    1.197972
     10          1           0       -0.774797   -1.177400   -1.369589
     11          1           0        0.324724    0.021211   -2.075015
     12          1           0        0.983089   -1.365259   -1.197972
 ---------------------------------------------------------------------

 SCF Done:  E(UB3LYP) =  -173.894013448     A.U. after    1 cycles

 The electronic state is 2-A'.
 Alpha  occ. eigenvalues --  -14.33788 -10.19860 -10.19860 -10.17399  -0.94616
 Alpha  occ. eigenvalues --   -0.72316  -0.70772  -0.58742  -0.48777  -0.48172
 Alpha  occ. eigenvalues --   -0.46926  -0.40534  -0.39359  -0.38469  -0.37978
 Alpha  occ. eigenvalues --   -0.30338  -0.14184
 Alpha virt. eigenvalues --    0.01101   0.04419   0.05288   0.06815   0.07025
 Alpha virt. eigenvalues --    0.07780   0.08882   0.10486   0.12965   0.14499
 Alpha virt. eigenvalues --    0.16332   0.16488   0.18878   0.19228   0.25431

  Beta  occ. eigenvalues --  -14.33186 -10.19870 -10.19870 -10.16329  -0.93513
  Beta  occ. eigenvalues --   -0.72207  -0.69619  -0.57464  -0.48425  -0.47437
  Beta  occ. eigenvalues --   -0.45911  -0.40393  -0.39099  -0.38363  -0.37415
  Beta  occ. eigenvalues --   -0.26402
  Beta virt. eigenvalues --   -0.02850   0.01264   0.04423   0.05414   0.07044
  Beta virt. eigenvalues --    0.07080   0.08088   0.09205   0.10517   0.12959
  Beta virt. eigenvalues --    0.14793   0.16535   0.16825   0.19008   0.20704

 Mulliken charges and spin densities:
               1          2
     1  N   -0.257064   0.163332
     2  C   -0.101475   0.838765
     3  C    0.075022  -0.017736
     4  C    0.075022  -0.017736
     5  H    0.029187  -0.024222
     6  H    0.029187  -0.024222
     7  H    0.017199   0.040156
     8  H    0.034054   0.001998
     9  H    0.023807  -0.001245
    10  H    0.017199   0.040156
    11  H    0.034054   0.001998
    12  H    0.023807  -0.001245
 Sum of Mulliken charges =   0.00000   1.00000

 Dipole moment (field-independent basis, Debye):
    X=              0.6625    Y=             -1.0936    Z=              0.0000  Tot=              1.2787
 Quadrupole moment (field-independent basis, Debye-Ang):
   XX=            -29.9440   YY=            -27.3957   ZZ=            -24.7899
   XY=             -0.4071   XZ=             -0.0000   YZ=             -0.0000

  Exact polarizability:  44.990  -2.302  57.772  -0.000   0.000  51.076
 Approx polarizability:  61.686  -2.446  72.932   0.000   0.000  64.054

                      1                      2                      3
                     A"                     A'                     A'
 Frequencies --    202.7573               204.9611               293.3414
 Red. masses --      1.0301                 1.0826                 2.7813
 Frc consts  --      0.0249                 0.0268                 0.1410
 IR Inten    --      0.3335                 0.0287                17.5291

                      4                      5                      6
                     A"                     A'                     A"
 Frequencies --    368.7313               417.7245               445.0478
 Red. masses --      1.0334                 2.1441                 2.2314
 Frc consts  --      0.0828                 0.2204                 0.2604
 IR Inten    --      5.5250                 1.3946                 2.7874

                      7                      8                      9
                     A'                     A'                     A"
 Frequencies --    576.5377               841.9513              1048.4347
 Red. masses --      1.3579                 3.8466                 1.7680
 Frc consts  --      0.2659                 1.6066                 1.1450
 IR Inten    --     46.3791                11.1372                11.3542

                     10                     11                     12
                     A"                     A"                     A'
 Frequencies --   1078.1360              1114.8911              1131.0420
 Red. masses --      1.2684                 1.2652                 1.6046
 Frc consts  --      0.8687                 0.9265                 1.2094
 IR Inten    --      2.9631                 7.7063                14.7048

                     13                     14                     15
                     A'                     A"                     A'
 Frequencies --   1164.4600              1324.1261              1393.5848
 Red. masses --      1.4195                 2.8773                 2.3191
 Frc consts  --      1.1341                 2.9723                 2.6536
 IR Inten    --     22.3222                23.8842                27.7986

                     16                     17                     18
                     A"                     A'                     A"
 Frequencies --   1445.0592              1456.6593              1479.6452
 Red. masses --      1.1524                 1.1924                 1.0417
 Frc consts  --      1.4178                 1.4907                 1.3438
 IR Inten    --      0.1786                 3.6156                 4.9744

                     19                     20                     21
                     A'                     A'                     A"
 Frequencies --   1489.0045              1496.0334              1496.3553
 Red. masses --      1.0620                 1.1135                 1.0499
 Frc consts  --      1.3873                 1.4683                 1.3850
 IR Inten    --     18.2342                 8.2192                 5.6095

                     22                     23                     24
                     A'                     A"                     A'
 Frequencies --   1534.1930              2951.9401              2958.1735
 Red. masses --      1.3353                 1.0577                 1.0603
 Frc consts  --      1.8518                 5.4305                 5.4669
 IR Inten    --     19.8539                56.9515               141.6454

                     25                     26                     27
                     A"                     A'                     A"
 Frequencies --   3065.7566              3066.5364              3111.3521
 Red. masses --      1.0743                 1.0719                 1.1031
 Frc consts  --      5.9492                 5.9386                 6.2917
 IR Inten    --     14.0315                50.0198                14.5692

                     28                     29                     30
                     A'                     A'                     A"
 Frequencies --   3113.1991              3150.1328              3260.9762
 Red. masses --      1.1033                 1.0492                 1.1215
 Frc consts  --      6.3002                 6.1341                 7.0269
 IR Inten    --     23.8594                14.2134                12.6486

 - Thermochemistry -
 -------------------
 Temperature   298.150 Kelvin.  Pressure   1.00000 Atm.
 Atom     1 has atomic number  7 and mass  14.00307

 Molecular mass:    58.06567 amu.
 Principal axes and moments of inertia in atomic units:
                           1         2         3
     Eigenvalues --   190.42861 203.01027 365.63598
           X            0.00000  -0.31843   0.94795
           Y            0.00000   0.94795   0.31843
           Z            1.00000  -0.00000   0.00000
 This molecule is an asymmetric top.
 Rotational symmetry number  1.
 Rotational temperatures (Kelvin)      0.45484     0.42665     0.23689
 Rotational constants (GHZ):           9.47726     8.88990     4.93590
 Zero-point vibrational energy     279212.9 (Joules/Mol)
                                   66.73347 (Kcal/Mol)
 Warning -- explicit consideration of   7 degrees of freedom as
           vibrations may cause significant error
 Vibrational temperatures:    291.72   294.89   422.05   530.52   601.01
          (Kelvin)            640.32   829.51  1211.38  1508.46  1551.20
                             1604.08  1627.32  1675.40  1905.12  2005.06
                             2079.12  2095.81  2128.88  2142.35  2152.46
                             2152.92  2207.36  4247.18  4256.15  4410.94
                             4412.06  4476.54  4479.20  4532.34  4691.82

 Zero-point correction=                           0.106347 (Hartree/Particle)
 Thermal correction to Energy=                    0.112036
 Thermal correction to Enthalpy=                  0.112981
 Thermal correction to Gibbs Free Energy=         0.078206
 Sum of electronic and zero-point Energies=           -173.787667
 Sum of electronic and thermal Energies=              -173.781977
 Sum of electronic and thermal Enthalpies=            -173.781033
 Sum of electronic and thermal Free Energies=         -173.815807

                     E (Thermal)             CV                S
                      KCal/Mol        Cal/Mol-Kelvin    Cal/Mol-Kelvin
 Total                   70.304             19.501             73.189
 Electronic               0.000              0.000              1.377
 Translational            0.889              2.981             38.098
 Rotational               0.889              2.981             24.162
 Vibrational             68.526             13.539              9.552
 Vibration     1          0.639              1.836              2.108
 Vibration     2          0.640              1.833              2.088
 Vibration     3          0.688              1.686              1.455
 Vibration     4          0.741              1.537              1.085
 Vibration     5          0.781              1.432              0.900
 Vibration     6          0.804              1.372              0.811
 Vibration     7          0.933              1.082              0.492

                           ! Non-Optimized Parameters !
 Normal termination of Gaussian 16 at Thu Jun 16 14:17:13 2022.
