 Gaussian 16, Revision B.01,

 ---------------------------------------
 # b3lyp/gen opt freq CPHF(Grid=OneStep)
 ---------------------------------------

 -----------------------------------
 dimethylamino methyl, B3LYP/pcseg-2
 -----------------------------------
 Symbolic Z-matrix:
 Charge =  0 Multiplicity = 2

 SCF Done:  E(UB3LYP) =  -173.894013843     A.U. after   15 cycles
 Optimization completed.
    -- Stationary point found.
 Normal termination of Gaussian 16 at Sat Sep 30 21:43:32 2023.

 ------------------------------------------------------------------
 #N Geom=AllCheck Guess=TCheck SCRF=Check GenChk UB3LYP/ChkBas Freq
 ------------------------------------------------------------------

 Structure from the checkpoint file:  "Me2NCH2.chk"
 -----------------------------------
 dimethylamino methyl, B3LYP/pcseg-2
 -----------------------------------
 Charge =  0 Multiplicity = 2

 SCF Done:  E(UB3LYP) =  -173.894013843     A.U. after    1 cycles

  Exact polarizability:  44.992  -2.277  57.792  -0.000   0.000  51.087
 Approx polarizability:  61.680  -2.420  72.954  -0.000   0.000  64.064

                      1                      2                      3
                     A"                     A'                     A'
 Frequencies --    204.2637               206.2717               292.6772
 Red. masses --      1.0301                 1.0827                 2.7812
 Frc consts  --      0.0253                 0.0271                 0.1404
 IR Inten    --      0.3390                 0.0263                17.5064

                      4                      5                      6
                     A"                     A'                     A"
 Frequencies --    368.8566               417.9636               445.1385
 Red. masses --      1.0333                 2.1432                 2.2315
 Frc consts  --      0.0828                 0.2206                 0.2605
 IR Inten    --      5.4734                 1.4034                 2.7888

                      7                      8                      9
                     A'                     A'                     A"
 Frequencies --    572.7695               842.1171              1048.7132
 Red. masses --      1.3590                 3.8447                 1.7620
 Frc consts  --      0.2627                 1.6064                 1.1418
 IR Inten    --     46.6070                11.1125                11.2835

                     10                     11                     12
                     A"                     A"                     A'
 Frequencies --   1078.5248              1115.1678              1131.2756
 Red. masses --      1.2703                 1.2655                 1.6042
 Frc consts  --      0.8706                 0.9272                 1.2096
 IR Inten    --      3.0193                 7.7449                14.7636

                     13                     14                     15
                     A'                     A"                     A'
 Frequencies --   1164.5776              1324.5141              1393.8384
 Red. masses --      1.4189                 2.8820                 2.3125
 Frc consts  --      1.1338                 2.9789                 2.6470
 IR Inten    --     22.2442                24.0177                27.7964

                     16                     17                     18
                     A"                     A'                     A"
 Frequencies --   1445.3588              1456.8315              1479.7132
 Red. masses --      1.1525                 1.1937                 1.0417
 Frc consts  --      1.4186                 1.4927                 1.3439
 IR Inten    --      0.1867                 3.6164                 4.9851

                     19                     20                     21
                     A'                     A'                     A"
 Frequencies --   1489.0821              1496.0320              1496.5083
 Red. masses --      1.0618                 1.1145                 1.0499
 Frc consts  --      1.3872                 1.4697                 1.3853
 IR Inten    --     18.3065                 8.1480                 5.6017

                     22                     23                     24
                     A'                     A"                     A'
 Frequencies --   1534.3175              2950.7414              2957.0123
 Red. masses --      1.3349                 1.0578                 1.0604
 Frc consts  --      1.8516                 5.4266                 5.4631
 IR Inten    --     19.9196                57.1441               142.0978

                     25                     26                     27
                     A"                     A'                     A"
 Frequencies --   3064.7825              3065.5545              3110.1958
 Red. masses --      1.0742                 1.0717                 1.1032
 Frc consts  --      5.9445                 5.9339                 6.2874
 IR Inten    --     14.2647                49.9462                14.4395

                     28                     29                     30
                     A'                     A'                     A"
 Frequencies --   3112.0565              3150.6161              3261.8868
 Red. masses --      1.1033                 1.0491                 1.1216
 Frc consts  --      6.2958                 6.1356                 7.0313
 IR Inten    --     24.1532                14.0750                12.5181

 - Thermochemistry -
 -------------------
 Temperature   298.150 Kelvin.  Pressure   1.00000 Atm.
 Atom     1 has atomic number  7 and mass  14.00307

 Molecular mass:    58.06567 amu.
 Principal axes and moments of inertia in atomic units:
                           1         2         3
     Eigenvalues --   190.42079 203.01424 365.66996
           X           -0.00000  -0.31740   0.94829
           Y            0.00000   0.94829   0.31740
           Z            1.00000  -0.00000   0.00000
 This molecule is an asymmetric top.
 Rotational symmetry number  1.
 Rotational temperatures (Kelvin)      0.45486     0.42664     0.23686
 Rotational constants (GHZ):           9.47765     8.88973     4.93544
 Zero-point vibrational energy     279192.6 (Joules/Mol)
                                   66.72863 (Kcal/Mol)
 Warning -- explicit consideration of   7 degrees of freedom as
           vibrations may cause significant error
 Vibrational temperatures:    293.89   296.78   421.10   530.70   601.36
          (Kelvin)            640.46   824.09  1211.62  1508.86  1551.76
                             1604.48  1627.65  1675.57  1905.68  2005.42
                             2079.55  2096.06  2128.98  2142.46  2152.46
                             2153.14  2207.54  4245.46  4254.48  4409.54
                             4410.65  4474.88  4477.56  4533.03  4693.13

 Zero-point correction=                           0.106339 (Hartree/Particle)
 Thermal correction to Energy=                    0.112027
 Thermal correction to Enthalpy=                  0.112971
 Thermal correction to Gibbs Free Energy=         0.078204
 Sum of electronic and zero-point Energies=           -173.787675
 Sum of electronic and thermal Energies=              -173.781987
 Sum of electronic and thermal Enthalpies=            -173.781043
 Sum of electronic and thermal Free Energies=         -173.815809

                     E (Thermal)             CV                S
                      KCal/Mol        Cal/Mol-Kelvin    Cal/Mol-Kelvin
 Total                   70.298             19.503             73.172
 Electronic               0.000              0.000              1.377
 Translational            0.889              2.981             38.098
 Rotational               0.889              2.981             24.162
 Vibrational             68.520             13.541              9.535
 Vibration     1          0.640              1.834              2.094
 Vibration     2          0.641              1.831              2.076
 Vibration     3          0.688              1.687              1.458
 Vibration     4          0.741              1.536              1.085
 Vibration     5          0.781              1.431              0.899
 Vibration     6          0.805              1.372              0.811
 Vibration     7          0.929              1.090              0.499

 Optimization completed.
    -- Stationary point found.
 Normal termination of Gaussian 16 at Sat Sep 30 21:55:10 2023.
 Gaussian 16:  ES64L-G16RevB.01 20-Dec-2017

 ---------------------------------
 # rohf/gen geom=check guess=check
 ---------------------------------

 --------------------------------------
 dimethylamino methyl, ROHF/cc-pVTZ-F12
 --------------------------------------
 Structure from the checkpoint file:  "Me2NCH2.chk"
 Charge =  0 Multiplicity = 2

                         Standard orientation:
 ---------------------------------------------------------------------
 Center     Atomic      Atomic             Coordinates (Angstroms)
 Number     Number       Type             X           Y           Z
 ---------------------------------------------------------------------
      1          7           0        0.171012    0.140252    0.000000
      2          6           0       -0.526268    1.329456   -0.000000
      3          6           0        0.171012   -0.638167    1.222308
      4          6           0        0.171012   -0.638167   -1.222308
      5          1           0       -0.577352    1.871800   -0.931428
      6          1           0       -0.577352    1.871800    0.931428
      7          1           0       -0.775707   -1.176869    1.370608
      8          1           0        0.325372    0.020991    2.075092
      9          1           0        0.981872   -1.366170    1.197563
     10          1           0       -0.775707   -1.176869   -1.370608
     11          1           0        0.325372    0.020991   -2.075092
     12          1           0        0.981872   -1.366170   -1.197563
 ---------------------------------------------------------------------

 SCF Done:  E(ROHF) =  -172.716847099     A.U. after   17 cycles

 The electronic state is 2-A'.
 Alpha  occ. eigenvalues --  -15.55798 -11.24747 -11.24745 -11.22603  -1.23508
 Alpha  occ. eigenvalues --   -0.96153  -0.93530  -0.78218  -0.64539  -0.63922
 Alpha  occ. eigenvalues --   -0.62301  -0.54951  -0.53179  -0.52735  -0.51648
 Alpha  occ. eigenvalues --   -0.39571  -0.03468
 Alpha virt. eigenvalues --    0.04922   0.05226   0.05596   0.06628   0.08049
 Alpha virt. eigenvalues --    0.08303   0.09597   0.09969   0.10586   0.11824
 Alpha virt. eigenvalues --    0.16275   0.17683   0.19054   0.20564   0.20760

 Mulliken charges and spin densities:
               1          2
     1  N   -0.283884   0.091553
     2  C   -0.282923   0.853443
     3  C   -0.143668  -0.003566
     4  C   -0.143668  -0.003566
     5  H    0.137514   0.019200
     6  H    0.137514   0.019200
     7  H    0.080069   0.012275
     8  H    0.106125   0.000202
     9  H    0.103364  -0.000608
    10  H    0.080069   0.012275
    11  H    0.106125   0.000202
    12  H    0.103364  -0.000608
 Sum of Mulliken charges =  -0.00000   1.00000

 Dipole moment (field-independent basis, Debye):
    X=              0.3607    Y=             -0.7521    Z=              0.0000  Tot=              0.8342
 Quadrupole moment (field-independent basis, Debye-Ang):
   XX=            -29.5710   YY=            -26.6984   ZZ=            -24.8591
   XY=             -0.5043   XZ=             -0.0000   YZ=             -0.0000

 Normal termination of Gaussian 16 at Sat Sep 30 21:57:40 2023.
