 Gaussian 16, Revision B.01,
 Gaussian 16:  ES64L-G16RevB.01 20-Dec-2017

 --------------------
 # b3lyp/gen opt freq
 --------------------

 -----------------------------
 dimethylaminyl, B3LYP/pcseg-2
 -----------------------------
 Symbolic Z-matrix:
 Charge =  0 Multiplicity = 2

 SCF Done:  E(UB3LYP) =  -134.566983290     A.U. after   13 cycles
 SCF Done:  E(UB3LYP) =  -134.567081426     A.U. after    8 cycles
 SCF Done:  E(UB3LYP) =  -134.567082171     A.U. after    7 cycles
 Optimization completed.
    -- Stationary point found.
 Normal termination of Gaussian 16 at Thu Jun 16 10:43:25 2022.

 ------------------------------------------------------------------
 #N Geom=AllCheck Guess=TCheck SCRF=Check GenChk UB3LYP/ChkBas Freq
 ------------------------------------------------------------------

 Structure from the checkpoint file:  "/wrk/irikura/Gau-10432.chk"
 -----------------------------
 dimethylaminyl, B3LYP/pcseg-2
 -----------------------------
 Charge =  0 Multiplicity = 2

                         Standard orientation:
 ---------------------------------------------------------------------
 Center     Atomic      Atomic             Coordinates (Angstroms)
 Number     Number       Type             X           Y           Z
 ---------------------------------------------------------------------
      1          7           0        0.000000    0.000000    0.630860
      2          6           0       -0.000000    1.191810   -0.169225
      3          6           0       -0.000000   -1.191810   -0.169225
      4          1           0       -0.000000    2.077626    0.463452
      5          1           0        0.880004    1.228826   -0.828056
      6          1           0       -0.880004    1.228826   -0.828056
      7          1           0       -0.000000   -2.077626    0.463452
      8          1           0        0.880004   -1.228826   -0.828056
      9          1           0       -0.880004   -1.228826   -0.828056
 ---------------------------------------------------------------------

 SCF Done:  E(UB3LYP) =  -134.567082171     A.U. after    1 cycles

 The electronic state is 2-B1.
 Alpha  occ. eigenvalues --  -14.32928 -10.19382 -10.19381  -0.90954  -0.71400
 Alpha  occ. eigenvalues --   -0.61126  -0.47420  -0.45900  -0.45363  -0.40300
 Alpha  occ. eigenvalues --   -0.37670  -0.27426  -0.25304
 Alpha virt. eigenvalues --    0.01291   0.04375   0.06450   0.06994   0.08174
 Alpha virt. eigenvalues --    0.09521   0.10759   0.16150   0.16544   0.17343
 Alpha virt. eigenvalues --    0.18565   0.27448   0.29380   0.29462   0.30517

  Beta  occ. eigenvalues --  -14.31005 -10.19468 -10.19467  -0.87767  -0.71068
  Beta  occ. eigenvalues --   -0.59277  -0.45590  -0.44793  -0.44402  -0.39516
  Beta  occ. eigenvalues --   -0.37439  -0.25519
  Beta virt. eigenvalues --   -0.08957   0.01399   0.04463   0.06888   0.06985
  Beta virt. eigenvalues --    0.08652   0.09565   0.10931   0.16289   0.16734
  Beta virt. eigenvalues --    0.18128   0.18859   0.27491   0.29719   0.29828

 Mulliken charges and spin densities:
               1          2
     1  N   -0.288715   0.897282
     2  C    0.055372  -0.056396
     3  C    0.055372  -0.056396
     4  H    0.052123   0.001075
     5  H    0.018431   0.053340
     6  H    0.018431   0.053340
     7  H    0.052123   0.001075
     8  H    0.018431   0.053340
     9  H    0.018431   0.053340
 Sum of Mulliken charges =  -0.00000   1.00000

 Dipole moment (field-independent basis, Debye):
    X=             -0.0000    Y=              0.0000    Z=             -1.7687  Tot=              1.7687
 Quadrupole moment (field-independent basis, Debye-Ang):
   XX=            -20.1538   YY=            -18.3516   ZZ=            -22.8379
   XY=             -0.0000   XZ=             -0.0000   YZ=             -0.0000

  Exact polarizability:  30.940  -0.000  41.633  -0.000   0.000  33.581
 Approx polarizability:  42.257   0.000  49.729   0.000  -0.000  46.666

                      1                      2                      3
                     A2                     B1                     A1
 Frequencies --     90.9763               132.1101               432.3533
 Red. masses --      1.0181                 1.4465                 2.1865
 Frc consts  --      0.0050                 0.0149                 0.2408
 IR Inten    --      0.0000                 1.6520                 1.5847

                      4                      5                      6
                     A1                     B1                     A2
 Frequencies --    913.5491               931.4743              1010.1456
 Red. masses --      4.5452                 1.2492                 1.2292
 Frc consts  --      2.2350                 0.6386                 0.7390
 IR Inten    --      6.5372                 3.7286                 0.0000

                      7                      8                      9
                     B2                     A1                     B2
 Frequencies --   1020.0989              1208.6836              1209.3623
 Red. masses --      1.6582                 1.5775                 3.1363
 Frc consts  --      1.0167                 1.3578                 2.7026
 IR Inten    --      0.0210                 0.0343                 4.3224

                     10                     11                     12
                     B2                     A1                     B2
 Frequencies --   1389.9395              1410.4127              1462.7599
 Red. masses --      1.1099                 1.1219                 1.0781
 Frc consts  --      1.2633                 1.3149                 1.3591
 IR Inten    --      0.1112                18.6267                 0.1072

                     13                     14                     15
                     A2                     A1                     B1
 Frequencies --   1470.1157              1488.0106              1489.1308
 Red. masses --      1.0537                 1.0909                 1.0460
 Frc consts  --      1.3418                 1.4231                 1.3666
 IR Inten    --      0.0000                 1.1858                18.7763

                     16                     17                     18
                     B2                     A1                     A2
 Frequencies --   2938.4511              2948.9590              2975.3866
 Red. masses --      1.0399                 1.0405                 1.0975
 Frc consts  --      5.2901                 5.3310                 5.7247
 IR Inten    --     13.8006                35.9098                 0.0000

                     19                     20                     21
                     B1                     B2                     A1
 Frequencies --   2982.3699              3098.1686              3099.0956
 Red. masses --      1.0974                 1.0926                 1.0935
 Frc consts  --      5.7512                 6.1788                 6.1880
 IR Inten    --     65.8076                48.0913                11.8611

 - Thermochemistry -
 -------------------
 Temperature   298.150 Kelvin.  Pressure   1.00000 Atm.
 Atom     1 has atomic number  7 and mass  14.00307

 Molecular mass:    44.05002 amu.
 Principal axes and moments of inertia in atomic units:
                           1         2         3
     Eigenvalues --    44.46657 185.69423 207.86403
           X            0.00000   0.00000   1.00000
           Y            1.00000   0.00000  -0.00000
           Z           -0.00000   1.00000  -0.00000
 This molecule is an asymmetric top.
 Rotational symmetry number  2.
 Rotational temperatures (Kelvin)      1.94784     0.46643     0.41669
 Rotational constants (GHZ):          40.58648     9.71889     8.68232
 Zero-point vibrational energy     201580.1 (Joules/Mol)
                                   48.17879 (Kcal/Mol)
 Warning -- explicit consideration of   3 degrees of freedom as
           vibrations may cause significant error
 Vibrational temperatures:    130.89   190.08   622.06  1314.39  1340.18
          (Kelvin)           1453.37  1467.69  1739.03  1740.00  1999.81
                             2029.27  2104.59  2115.17  2140.92  2142.53
                             4227.78  4242.89  4280.92  4290.97  4457.57
                             4458.91

 Zero-point correction=                           0.076778 (Hartree/Particle)
 Thermal correction to Energy=                    0.081554
 Thermal correction to Enthalpy=                  0.082498
 Thermal correction to Gibbs Free Energy=         0.050500
 Sum of electronic and zero-point Energies=           -134.490304
 Sum of electronic and thermal Energies=              -134.485528
 Sum of electronic and thermal Enthalpies=            -134.484584
 Sum of electronic and thermal Free Energies=         -134.516582

                     E (Thermal)             CV                S
                      KCal/Mol        Cal/Mol-Kelvin    Cal/Mol-Kelvin
 Total                   51.176             13.836             67.345
 Electronic               0.000              0.000              1.377
 Translational            0.889              2.981             37.274
 Rotational               0.889              2.981             20.689
 Vibrational             49.399              7.874              8.004
 Vibration     1          0.602              1.956              3.639
 Vibration     2          0.612              1.921              2.915
 Vibration     3          0.793              1.400              0.851

 Optimization completed.
    -- Stationary point found.
 Normal termination of Gaussian 16 at Thu Jun 16 10:44:12 2022.
