 Gaussian 16, Revision B.01,
 Gaussian 16:  ES64L-G16RevB.01 20-Dec-2017

 ---------------------------------------
 # b3lyp/gen opt freq CPHF(Grid=OneStep)
 ---------------------------------------

 -----------------------------------
 dimethylamino methyl, B3LYP/pcseg-2
 -----------------------------------
 Symbolic Z-matrix:
 Charge =  0 Multiplicity = 2

 SCF Done:  E(UB3LYP) =  -173.893731664     A.U. after   14 cycles
 SCF Done:  E(UB3LYP) =  -173.893975925     A.U. after   11 cycles
 SCF Done:  E(UB3LYP) =  -173.894010273     A.U. after    9 cycles
 SCF Done:  E(UB3LYP) =  -173.894013448     A.U. after    9 cycles
 SCF Done:  E(UB3LYP) =  -173.894013843     A.U. after    8 cycles
 Optimization completed.
    -- Stationary point found.
 Normal termination of Gaussian 16 at Sat Sep 16 14:07:37 2023.

 ------------------------------------------------------------------
 #N Geom=AllCheck Guess=TCheck SCRF=Check GenChk UB3LYP/ChkBas Freq
 ------------------------------------------------------------------

 Structure from the checkpoint file:  "/wrk/irikura/Gau-250520.chk"
 -----------------------------------
 dimethylamino methyl, B3LYP/pcseg-2
 -----------------------------------
 Charge =  0 Multiplicity = 2

                         Standard orientation:
 ---------------------------------------------------------------------
 Center     Atomic      Atomic             Coordinates (Angstroms)
 Number     Number       Type             X           Y           Z
 ---------------------------------------------------------------------
      1          7           0        0.171012    0.140252    0.000000
      2          6           0       -0.526268    1.329456    0.000000
      3          6           0        0.171012   -0.638167    1.222308
      4          6           0        0.171012   -0.638167   -1.222308
      5          1           0       -0.577352    1.871800   -0.931428
      6          1           0       -0.577352    1.871800    0.931428
      7          1           0       -0.775707   -1.176869    1.370608
      8          1           0        0.325372    0.020991    2.075092
      9          1           0        0.981872   -1.366170    1.197563
     10          1           0       -0.775707   -1.176869   -1.370608
     11          1           0        0.325372    0.020991   -2.075092
     12          1           0        0.981872   -1.366170   -1.197563
 ---------------------------------------------------------------------

 SCF Done:  E(UB3LYP) =  -173.894013843     A.U. after    1 cycles

 The electronic state is 2-A'.
 Alpha  occ. eigenvalues --  -14.33787 -10.19864 -10.19863 -10.17397  -0.94619
 Alpha  occ. eigenvalues --   -0.72318  -0.70773  -0.58742  -0.48784  -0.48171
 Alpha  occ. eigenvalues --   -0.46925  -0.40530  -0.39358  -0.38471  -0.37990
 Alpha  occ. eigenvalues --   -0.30333  -0.14173
 Alpha virt. eigenvalues --    0.01099   0.04417   0.05289   0.06815   0.07025
 Alpha virt. eigenvalues --    0.07780   0.08885   0.10481   0.12962   0.14492
 Alpha virt. eigenvalues --    0.16325   0.16490   0.18880   0.19237   0.25411

  Beta  occ. eigenvalues --  -14.33185 -10.19874 -10.19874 -10.16327  -0.93517
  Beta  occ. eigenvalues --   -0.72208  -0.69619  -0.57463  -0.48432  -0.47436
  Beta  occ. eigenvalues --   -0.45909  -0.40389  -0.39098  -0.38365  -0.37428
  Beta  occ. eigenvalues --   -0.26397
  Beta virt. eigenvalues --   -0.02842   0.01262   0.04421   0.05415   0.07044
  Beta virt. eigenvalues --    0.07080   0.08089   0.09208   0.10512   0.12957
  Beta virt. eigenvalues --    0.14786   0.16537   0.16817   0.19010   0.20713

 Mulliken charges and spin densities:
               1          2
     1  N   -0.257070   0.163284
     2  C   -0.101560   0.838911
     3  C    0.075039  -0.017767
     4  C    0.075039  -0.017767
     5  H    0.029244  -0.024293
     6  H    0.029244  -0.024293
     7  H    0.017205   0.040178
     8  H    0.034055   0.002026
     9  H    0.023772  -0.001241
    10  H    0.017205   0.040178
    11  H    0.034055   0.002026
    12  H    0.023772  -0.001241
 Sum of Mulliken charges =  -0.00000   1.00000

 Dipole moment (field-independent basis, Debye):
    X=              0.6612    Y=             -1.0947    Z=              0.0000  Tot=              1.2789
 Quadrupole moment (field-independent basis, Debye-Ang):
   XX=            -29.9434   YY=            -27.4011   ZZ=            -24.7887
   XY=             -0.4062   XZ=              0.0000   YZ=              0.0000

  Exact polarizability:  44.992  -2.277  57.792  -0.000   0.000  51.087
 Approx polarizability:  61.680  -2.420  72.954  -0.000   0.000  64.064

                      1                      2                      3
                     A"                     A'                     A'
 Frequencies --    204.2619               206.2697               292.6768
 Red. masses --      1.0301                 1.0827                 2.7812
 Frc consts  --      0.0253                 0.0271                 0.1404
 IR Inten    --      0.3390                 0.0263                17.5065

                      4                      5                      6
                     A"                     A'                     A"
 Frequencies --    368.8526               417.9630               445.1382
 Red. masses --      1.0333                 2.1432                 2.2315
 Frc consts  --      0.0828                 0.2206                 0.2605
 IR Inten    --      5.4735                 1.4034                 2.7888

                      7                      8                      9
                     A'                     A'                     A"
 Frequencies --    572.7655               842.1173              1048.7132
 Red. masses --      1.3590                 3.8447                 1.7620
 Frc consts  --      0.2627                 1.6064                 1.1418
 IR Inten    --     46.6074                11.1125                11.2832

                     10                     11                     12
                     A"                     A"                     A'
 Frequencies --   1078.5245              1115.1680              1131.2747
 Red. masses --      1.2703                 1.2655                 1.6042
 Frc consts  --      0.8706                 0.9272                 1.2096
 IR Inten    --      3.0194                 7.7449                14.7641

                     13                     14                     15
                     A'                     A"                     A'
 Frequencies --   1164.5777              1324.5148              1393.8374
 Red. masses --      1.4189                 2.8820                 2.3125
 Frc consts  --      1.1338                 2.9789                 2.6471
 IR Inten    --     22.2440                24.0179                27.7966

                     16                     17                     18
                     A"                     A'                     A"
 Frequencies --   1445.3587              1456.8312              1479.7131
 Red. masses --      1.1525                 1.1937                 1.0417
 Frc consts  --      1.4186                 1.4927                 1.3439
 IR Inten    --      0.1867                 3.6164                 4.9850

                     19                     20                     21
                     A'                     A'                     A"
 Frequencies --   1489.0819              1496.0318              1496.5083
 Red. masses --      1.0618                 1.1145                 1.0499
 Frc consts  --      1.3872                 1.4697                 1.3853
 IR Inten    --     18.3064                 8.1482                 5.6019

                     22                     23                     24
                     A'                     A"                     A'
 Frequencies --   1534.3168              2950.7406              2957.0115
 Red. masses --      1.3349                 1.0578                 1.0604
 Frc consts  --      1.8516                 5.4266                 5.4631
 IR Inten    --     19.9193                57.1439               142.0987

                     25                     26                     27
                     A"                     A'                     A"
 Frequencies --   3064.7833              3065.5554              3110.1981
 Red. masses --      1.0742                 1.0717                 1.1032
 Frc consts  --      5.9445                 5.9339                 6.2874
 IR Inten    --     14.2637                49.9475                14.4408

                     28                     29                     30
                     A'                     A'                     A"
 Frequencies --   3112.0587              3150.6184              3261.8895
 Red. masses --      1.1033                 1.0491                 1.1216
 Frc consts  --      6.2958                 6.1356                 7.0313
 IR Inten    --     24.1517                14.0751                12.5182

 - Thermochemistry -
 -------------------
 Temperature   298.150 Kelvin.  Pressure   1.00000 Atm.
 Atom     1 has atomic number  7 and mass  14.00307

 Molecular mass:    58.06567 amu.
 Principal axes and moments of inertia in atomic units:
                           1         2         3
     Eigenvalues --   190.42083 203.01422 365.66998
           X            0.00000  -0.31740   0.94829
           Y            0.00000   0.94829   0.31740
           Z            1.00000  -0.00000  -0.00000
 This molecule is an asymmetric top.
 Rotational symmetry number  1.
 Rotational temperatures (Kelvin)      0.45486     0.42664     0.23686
 Rotational constants (GHZ):           9.47765     8.88973     4.93544
 Zero-point vibrational energy     279192.6 (Joules/Mol)
                                   66.72863 (Kcal/Mol)
 Warning -- explicit consideration of   7 degrees of freedom as
           vibrations may cause significant error
 Vibrational temperatures:    293.89   296.78   421.10   530.70   601.36
          (Kelvin)            640.45   824.08  1211.62  1508.86  1551.76
                             1604.48  1627.65  1675.57  1905.68  2005.42
                             2079.55  2096.06  2128.98  2142.46  2152.46
                             2153.14  2207.54  4245.46  4254.48  4409.54
                             4410.65  4474.88  4477.56  4533.04  4693.13

 Zero-point correction=                           0.106339 (Hartree/Particle)
 Thermal correction to Energy=                    0.112027
 Thermal correction to Enthalpy=                  0.112971
 Thermal correction to Gibbs Free Energy=         0.078204
 Sum of electronic and zero-point Energies=           -173.787675
 Sum of electronic and thermal Energies=              -173.781987
 Sum of electronic and thermal Enthalpies=            -173.781043
 Sum of electronic and thermal Free Energies=         -173.815809

                     E (Thermal)             CV                S
                      KCal/Mol        Cal/Mol-Kelvin    Cal/Mol-Kelvin
 Total                   70.298             19.503             73.172
 Electronic               0.000              0.000              1.377
 Translational            0.889              2.981             38.098
 Rotational               0.889              2.981             24.162
 Vibrational             68.520             13.541              9.535
 Vibration     1          0.640              1.834              2.094
 Vibration     2          0.641              1.831              2.076
 Vibration     3          0.688              1.687              1.458
 Vibration     4          0.741              1.536              1.085
 Vibration     5          0.781              1.431              0.899
 Vibration     6          0.805              1.372              0.811
 Vibration     7          0.929              1.090              0.499

 Optimization completed.
    -- Stationary point found.
 Normal termination of Gaussian 16 at Sat Sep 16 14:11:36 2023.
