 Gaussian 16, Revision B.01,

 ---------------------------------------
 # b3lyp/gen opt freq CPHF(Grid=OneStep)
 ---------------------------------------

 -------------------------------
 dimethylsilanone, B3LYP/pcseg-2
 -------------------------------
 Symbolic Z-matrix:
 Charge =  0 Multiplicity = 1

 SCF Done:  E(RB3LYP) =  -444.680986742     A.U. after   13 cycles
 Optimization completed.
    -- Stationary point found.
 Normal termination of Gaussian 16 at Wed Sep 27 19:56:44 2023.

 ------------------------------------------------------------------
 #N Geom=AllCheck Guess=TCheck SCRF=Check GenChk RB3LYP/ChkBas Freq
 ------------------------------------------------------------------

 Structure from the checkpoint file:  "me2sio.chk"
 -------------------------------
 dimethylsilanone, B3LYP/pcseg-2
 -------------------------------
 Charge =  0 Multiplicity = 1

 SCF Done:  E(RB3LYP) =  -444.680986742     A.U. after    1 cycles

  Exact polarizability:  40.123  -0.140  56.428   0.000  -0.000  55.713
 Approx polarizability:  60.024  -0.247  68.602  -0.000   0.000  83.177

                      1                      2                      3
                      A                      B                      A
 Frequencies --     40.7351                65.9676               219.3433
 Red. masses --      1.0179                 1.0809                 2.3887
 Frc consts  --      0.0010                 0.0028                 0.0677
 IR Inten    --      0.0113                 0.7820                 0.0169

                      4                      5                      6
                      B                      B                      A
 Frequencies --    257.8687               293.0926               622.6631
 Red. masses --      3.3870                 4.5653                 3.9145
 Frc consts  --      0.1327                 0.2311                 0.8942
 IR Inten    --     17.3959                38.7052                 2.7963

                      7                      8                      9
                      A                      B                      B
 Frequencies --    681.0941               688.0686               790.8329
 Red. masses --      1.1808                 1.8081                 1.4255
 Frc consts  --      0.3227                 0.5044                 0.5253
 IR Inten    --      0.0000                 9.1534                27.6797

                     10                     11                     12
                      B                      A                      A
 Frequencies --    806.1994               852.0917              1234.6417
 Red. masses --      2.3353                 1.4081                 7.6642
 Frc consts  --      0.8943                 0.6024                 6.8833
 IR Inten    --    127.5149                19.6628               109.5795

                     13                     14                     15
                      B                      A                      B
 Frequencies --   1281.9790              1286.6335              1442.7042
 Red. masses --      1.2562                 1.3225                 1.0493
 Frc consts  --      1.2164                 1.2899                 1.2868
 IR Inten    --     32.3758                55.1089                 2.0783

                     16                     17                     18
                      A                      A                      B
 Frequencies --   1447.0891              1451.8130              1460.5824
 Red. masses --      1.0560                 1.0503                 1.0489
 Frc consts  --      1.3029                 1.3043                 1.3184
 IR Inten    --      0.6129                 3.5145                15.8485

                     19                     20                     21
                      B                      A                      A
 Frequencies --   3026.9645              3030.3316              3089.0764
 Red. masses --      1.0365                 1.0363                 1.0975
 Frc consts  --      5.5952                 5.6069                 6.1704
 IR Inten    --      0.1205                 1.8823                 0.5580

                     22                     23                     24
                      B                      A                      B
 Frequencies --   3091.4054              3133.2946              3133.4911
 Red. masses --      1.0978                 1.1004                 1.0999
 Frc consts  --      6.1811                 6.3651                 6.3628
 IR Inten    --      6.1537                 1.3487                 1.5121

 - Thermochemistry -
 -------------------
 Temperature   298.150 Kelvin.  Pressure   1.00000 Atm.
 Atom     1 has atomic number  8 and mass  15.99491

 Molecular mass:    74.01879 amu.
 Principal axes and moments of inertia in atomic units:
                           1         2         3
     Eigenvalues --   273.84523 295.73843 547.38165
           X           -0.00095   0.00000   1.00000
           Y            1.00000   0.00000   0.00095
           Z           -0.00000   1.00000  -0.00000
 This molecule is an asymmetric top.
 Rotational symmetry number  2.
 Rotational temperatures (Kelvin)      0.31629     0.29287     0.15823
 Rotational constants (GHZ):           6.59037     6.10249     3.29704
 Zero-point vibrational energy     199943.6 (Joules/Mol)
                                   47.78767 (Kcal/Mol)
 Warning -- explicit consideration of   5 degrees of freedom as
           vibrations may cause significant error
 Vibrational temperatures:     58.61    94.91   315.59   371.02   421.69
          (Kelvin)            895.87   979.94   989.98  1137.83  1159.94
                             1225.97  1776.37  1844.48  1851.18  2075.73
                             2082.04  2088.84  2101.45  4355.13  4359.97
                             4444.49  4447.84  4508.11  4508.39

 Zero-point correction=                           0.076155 (Hartree/Particle)
 Thermal correction to Energy=                    0.082750
 Thermal correction to Enthalpy=                  0.083694
 Thermal correction to Gibbs Free Energy=         0.046096
 Sum of electronic and zero-point Energies=           -444.604832
 Sum of electronic and thermal Energies=              -444.598237
 Sum of electronic and thermal Enthalpies=            -444.597293
 Sum of electronic and thermal Free Energies=         -444.634891

                     E (Thermal)             CV                S
                      KCal/Mol        Cal/Mol-Kelvin    Cal/Mol-Kelvin
 Total                   51.926             20.590             79.132
 Electronic               0.000              0.000              0.000
 Translational            0.889              2.981             38.821
 Rotational               0.889              2.981             23.920
 Vibrational             50.149             14.628             16.390
 Vibration     1          0.594              1.981              5.223
 Vibration     2          0.597              1.971              4.270
 Vibration     3          0.647              1.812              1.965
 Vibration     4          0.667              1.749              1.676
 Vibration     5          0.688              1.687              1.456

 Optimization completed.
    -- Stationary point found.
 Normal termination of Gaussian 16 at Wed Sep 27 20:00:25 2023.
 Gaussian 16:  ES64L-G16RevB.01 20-Dec-2017

 ---------------------------------
 # rohf/gen geom=check guess=check
 ---------------------------------

 ----------------------------------
 dimethylsilanone, ROHF/cc-pVTZ-F12
 ----------------------------------
 Structure from the checkpoint file:  "me2sio.chk"
 Charge =  0 Multiplicity = 1

                         Standard orientation:
 ---------------------------------------------------------------------
 Center     Atomic      Atomic             Coordinates (Angstroms)
 Number     Number       Type             X           Y           Z
 ---------------------------------------------------------------------
      1          8           0        0.000000   -0.000000    1.716200
      2         14           0        0.000000   -0.000000    0.193567
      3          6           0        0.000000    1.550387   -0.840136
      4          6           0       -0.000000   -1.550387   -0.840136
      5          1           0        0.160829    2.426610   -0.215280
      6          1           0       -0.160829   -2.426610   -0.215280
      7          1           0       -0.959018    1.660282   -1.352829
      8          1           0        0.959018   -1.660282   -1.352829
      9          1           0        0.772453    1.509443   -1.610845
     10          1           0       -0.772453   -1.509443   -1.610845
 ---------------------------------------------------------------------

 SCF Done:  E(ROHF) =  -443.139034136     A.U. after   11 cycles

 The electronic state is 1-A.
 Alpha  occ. eigenvalues --  -68.79303 -20.48077 -11.23273 -11.23272  -6.14003
 Alpha  occ. eigenvalues --   -4.24879  -4.24473  -4.24443  -1.22004  -0.98535
 Alpha  occ. eigenvalues --   -0.95961  -0.62643  -0.59339  -0.59312  -0.58040
 Alpha  occ. eigenvalues --   -0.57493  -0.49358  -0.48818  -0.43017  -0.41336
 Alpha virt. eigenvalues --    0.02354   0.03833   0.04240   0.05453   0.08337
 Alpha virt. eigenvalues --    0.08373   0.08809   0.09129   0.09306   0.09694
 Alpha virt. eigenvalues --    0.11160   0.13096   0.13906   0.16957   0.18759

 Mulliken charges and spin densities:
               1          2
     1  O   -0.892862   0.000000
     2  Si   1.326310   0.000000
     3  C   -0.493935   0.000000
     4  C   -0.493935   0.000000
     5  H    0.122818   0.000000
     6  H    0.122818   0.000000
     7  H    0.081346   0.000000
     8  H    0.081346   0.000000
     9  H    0.073046   0.000000
    10  H    0.073046   0.000000
 Sum of Mulliken charges =  -0.00000   0.00000

 Dipole moment (field-independent basis, Debye):
    X=              0.0000    Y=              0.0000    Z=             -5.3359  Tot=              5.3359
 Quadrupole moment (field-independent basis, Debye-Ang):
   XX=            -29.1653   YY=            -29.8672   ZZ=            -41.6032
   XY=             -0.0376   XZ=             -0.0000   YZ=             -0.0000

 Normal termination of Gaussian 16 at Wed Sep 27 20:01:36 2023.
