 Gaussian 16, Revision B.01,
 Gaussian 16:  ES64L-G16RevB.01 20-Dec-2017

 --------------------------
 # b3lyp/gen opt=tight freq
 --------------------------

 -------------------------------
 dimethylsilanone, B3LYP/pcseg-2
 -------------------------------
 Symbolic Z-matrix:
 Charge =  0 Multiplicity = 1

 SCF Done:  E(RB3LYP) =  -444.679647991     A.U. after   13 cycles
 SCF Done:  E(RB3LYP) =  -444.680984870     A.U. after   10 cycles
 SCF Done:  E(RB3LYP) =  -444.680985802     A.U. after    6 cycles
 SCF Done:  E(RB3LYP) =  -444.680985956     A.U. after    6 cycles
 SCF Done:  E(RB3LYP) =  -444.680985986     A.U. after    5 cycles
 SCF Done:  E(RB3LYP) =  -444.680986058     A.U. after    6 cycles
 SCF Done:  E(RB3LYP) =  -444.680986127     A.U. after    6 cycles
 SCF Done:  E(RB3LYP) =  -444.680986234     A.U. after    7 cycles
 SCF Done:  E(RB3LYP) =  -444.680986345     A.U. after    7 cycles
 SCF Done:  E(RB3LYP) =  -444.680986476     A.U. after    7 cycles
 SCF Done:  E(RB3LYP) =  -444.680986602     A.U. after    7 cycles
 SCF Done:  E(RB3LYP) =  -444.680986698     A.U. after    7 cycles
 SCF Done:  E(RB3LYP) =  -444.680986734     A.U. after    5 cycles
 SCF Done:  E(RB3LYP) =  -444.680986741     A.U. after    5 cycles
 SCF Done:  E(RB3LYP) =  -444.680986742     A.U. after    5 cycles
 SCF Done:  E(RB3LYP) =  -444.680986742     A.U. after    4 cycles
 SCF Done:  E(RB3LYP) =  -444.680986742     A.U. after    4 cycles
 SCF Done:  E(RB3LYP) =  -444.680986742     A.U. after    4 cycles
 Optimization completed.
    -- Stationary point found.
 Normal termination of Gaussian 16 at Fri Jun 17 17:01:35 2022.

 ------------------------------------------------------------------
 #N Geom=AllCheck Guess=TCheck SCRF=Check GenChk RB3LYP/ChkBas Freq
 ------------------------------------------------------------------

 Structure from the checkpoint file:  "/wrk/irikura/Gau-26396.chk"
 -------------------------------
 dimethylsilanone, B3LYP/pcseg-2
 -------------------------------
 Charge =  0 Multiplicity = 1

                         Standard orientation:
 ---------------------------------------------------------------------
 Center     Atomic      Atomic             Coordinates (Angstroms)
 Number     Number       Type             X           Y           Z
 ---------------------------------------------------------------------
      1          8           0       -0.000000   -0.000000    1.716200
      2         14           0       -0.000000   -0.000000    0.193567
      3          6           0        0.000000    1.550387   -0.840136
      4          6           0       -0.000000   -1.550387   -0.840136
      5          1           0        0.160829    2.426610   -0.215280
      6          1           0       -0.160829   -2.426610   -0.215280
      7          1           0       -0.959018    1.660282   -1.352829
      8          1           0        0.959018   -1.660282   -1.352829
      9          1           0        0.772453    1.509443   -1.610845
     10          1           0       -0.772453   -1.509443   -1.610845
 ---------------------------------------------------------------------

 SCF Done:  E(RB3LYP) =  -444.680986742     A.U. after    1 cycles

 The electronic state is 1-A.
 Alpha  occ. eigenvalues --  -66.10281 -19.06418 -10.17990 -10.17990  -5.28669
 Alpha  occ. eigenvalues --   -3.64976  -3.64168  -3.64057  -0.90439  -0.73534
 Alpha  occ. eigenvalues --   -0.71376  -0.46571  -0.44239  -0.43890  -0.42818
 Alpha  occ. eigenvalues --   -0.42629  -0.35331  -0.32957  -0.29939  -0.26902
 Alpha virt. eigenvalues --   -0.04151  -0.02276   0.03277   0.04434   0.04490
 Alpha virt. eigenvalues --    0.06320   0.07968   0.08205   0.09524   0.13603
 Alpha virt. eigenvalues --    0.14060   0.14488   0.16319   0.16558   0.20332

 Mulliken charges:
               1
     1  O   -0.675269
     2  Si   0.879050
     3  C   -0.299161
     4  C   -0.299161
     5  H    0.091010
     6  H    0.091010
     7  H    0.056770
     8  H    0.056770
     9  H    0.049491
    10  H    0.049491
 Sum of Mulliken charges =  -0.00000

 Dipole moment (field-independent basis, Debye):
    X=              0.0000    Y=             -0.0000    Z=             -4.8015  Tot=              4.8015
 Quadrupole moment (field-independent basis, Debye-Ang):
   XX=            -29.6698   YY=            -30.1647   ZZ=            -40.5319
   XY=             -0.0531   XZ=             -0.0000   YZ=              0.0000

  Exact polarizability:  40.123  -0.140  56.429   0.000  -0.000  55.714
 Approx polarizability:  60.024  -0.247  68.602  -0.000  -0.000  83.177

                      1                      2                      3
                      A                      B                      A
 Frequencies --     40.7646                65.9858               219.3442
 Red. masses --      1.0179                 1.0809                 2.3887
 Frc consts  --      0.0010                 0.0028                 0.0677
 IR Inten    --      0.0113                 0.7820                 0.0170

                      4                      5                      6
                      B                      B                      A
 Frequencies --    257.8712               293.0857               622.6642
 Red. masses --      3.3870                 4.5651                 3.9145
 Frc consts  --      0.1327                 0.2310                 0.8942
 IR Inten    --     17.3957                38.7062                 2.7968

                      7                      8                      9
                      A                      B                      B
 Frequencies --    681.0989               688.0633               790.8323
 Red. masses --      1.1808                 1.8079                 1.4255
 Frc consts  --      0.3227                 0.5043                 0.5253
 IR Inten    --      0.0000                 9.1426                27.6781

                     10                     11                     12
                      B                      A                      A
 Frequencies --    806.1955               852.0909              1234.6334
 Red. masses --      2.3357                 1.4081                 7.6662
 Frc consts  --      0.8944                 0.6024                 6.8850
 IR Inten    --    127.5319                19.6663               109.5942

                     13                     14                     15
                      B                      A                      B
 Frequencies --   1281.9774              1286.6328              1442.7068
 Red. masses --      1.2562                 1.3224                 1.0493
 Frc consts  --      1.2164                 1.2898                 1.2868
 IR Inten    --     32.3612                55.0899                 2.0775

                     16                     17                     18
                      A                      A                      B
 Frequencies --   1447.0941              1451.8141              1460.5843
 Red. masses --      1.0560                 1.0503                 1.0489
 Frc consts  --      1.3029                 1.3043                 1.3184
 IR Inten    --      0.6122                 3.5145                15.8495

                     19                     20                     21
                      B                      A                      A
 Frequencies --   3026.9665              3030.3315              3089.0780
 Red. masses --      1.0365                 1.0363                 1.0975
 Frc consts  --      5.5952                 5.6069                 6.1705
 IR Inten    --      0.1210                 1.8831                 0.5580

                     22                     23                     24
                      B                      A                      B
 Frequencies --   3091.4054              3133.2922              3133.4897
 Red. masses --      1.0978                 1.1004                 1.0999
 Frc consts  --      6.1811                 6.3651                 6.3627
 IR Inten    --      6.1532                 1.3478                 1.5112

 - Thermochemistry -
 -------------------
 Temperature   298.150 Kelvin.  Pressure   1.00000 Atm.
 Atom     1 has atomic number  8 and mass  15.99491

 Molecular mass:    74.01879 amu.
 Principal axes and moments of inertia in atomic units:
                           1         2         3
     Eigenvalues --   273.84526 295.73830 547.38155
           X           -0.00095   0.00000   1.00000
           Y            1.00000  -0.00000   0.00095
           Z            0.00000   1.00000  -0.00000
 This molecule is an asymmetric top.
 Rotational symmetry number  2.
 Rotational temperatures (Kelvin)      0.31629     0.29287     0.15823
 Rotational constants (GHZ):           6.59037     6.10249     3.29704
 Zero-point vibrational energy     199943.9 (Joules/Mol)
                                   47.78773 (Kcal/Mol)
 Warning -- explicit consideration of   5 degrees of freedom as
           vibrations may cause significant error
 Vibrational temperatures:     58.65    94.94   315.59   371.02   421.69
          (Kelvin)            895.87   979.95   989.97  1137.83  1159.94
                             1225.97  1776.36  1844.48  1851.18  2075.73
                             2082.05  2088.84  2101.46  4355.13  4359.97
                             4444.49  4447.84  4508.11  4508.39

 Zero-point correction=                           0.076155 (Hartree/Particle)
 Thermal correction to Energy=                    0.082750
 Thermal correction to Enthalpy=                  0.083694
 Thermal correction to Gibbs Free Energy=         0.046097
 Sum of electronic and zero-point Energies=           -444.604832
 Sum of electronic and thermal Energies=              -444.598237
 Sum of electronic and thermal Enthalpies=            -444.597293
 Sum of electronic and thermal Free Energies=         -444.634890

                     E (Thermal)             CV                S
                      KCal/Mol        Cal/Mol-Kelvin    Cal/Mol-Kelvin
 Total                   51.926             20.590             79.130
 Electronic               0.000              0.000              0.000
 Translational            0.889              2.981             38.821
 Rotational               0.889              2.981             23.920
 Vibrational             50.149             14.628             16.388
 Vibration     1          0.594              1.981              5.222
 Vibration     2          0.597              1.970              4.270
 Vibration     3          0.647              1.812              1.964
 Vibration     4          0.667              1.749              1.676
 Vibration     5          0.688              1.687              1.456

 Optimization completed.
    -- Stationary point found.
 Normal termination of Gaussian 16 at Fri Jun 17 17:02:36 2022.
