 Gaussian 16, Revision B.01,
 Gaussian 16:  ES64L-G16RevB.01 20-Dec-2017

 --------------------
 # b3lyp/gen opt freq
 --------------------

 -----------------------------
 trimethylsilyl, B3LYP/pcseg-2
 -----------------------------
 Symbolic Z-matrix:
 Charge =  0 Multiplicity = 2

 SCF Done:  E(UB3LYP) =  -409.302272725     A.U. after   11 cycles
 SCF Done:  E(UB3LYP) =  -409.302356355     A.U. after    8 cycles
 SCF Done:  E(UB3LYP) =  -409.302357074     A.U. after    7 cycles
 SCF Done:  E(UB3LYP) =  -409.302357200     A.U. after    6 cycles
 Optimization completed.
    -- Stationary point found.
 Normal termination of Gaussian 16 at Fri Jun 17 17:33:18 2022.

 ------------------------------------------------------------------
 #N Geom=AllCheck Guess=TCheck SCRF=Check GenChk UB3LYP/ChkBas Freq
 ------------------------------------------------------------------

 Structure from the checkpoint file:  "/wrk/irikura/Gau-5051.chk"
 -----------------------------
 trimethylsilyl, B3LYP/pcseg-2
 -----------------------------
 Charge =  0 Multiplicity = 2

                         Standard orientation:
 ---------------------------------------------------------------------
 Center     Atomic      Atomic             Coordinates (Angstroms)
 Number     Number       Type             X           Y           Z
 ---------------------------------------------------------------------
      1         14           0        0.000000    0.000000    0.420162
      2          6           0        0.000000    1.792279   -0.175098
      3          6           0        1.552159   -0.896140   -0.175098
      4          6           0       -1.552159   -0.896140   -0.175098
      5          1           0        0.000000    1.835274   -1.269192
      6          1           0        0.881417    2.327802    0.179512
      7          1           0       -0.881417    2.327802    0.179512
      8          1           0        1.589394   -0.917637   -1.269192
      9          1           0        1.575227   -1.927230    0.179512
     10          1           0        2.456644   -0.400572    0.179512
     11          1           0       -1.589394   -0.917637   -1.269192
     12          1           0       -2.456644   -0.400572    0.179512
     13          1           0       -1.575227   -1.927230    0.179512
 ---------------------------------------------------------------------

 SCF Done:  E(UB3LYP) =  -409.302357200     A.U. after    1 cycles

 The electronic state is 2-A1.
 Alpha  occ. eigenvalues --  -66.07194 -10.15145 -10.15145 -10.15145  -5.25488
 Alpha  occ. eigenvalues --   -3.61667  -3.61064  -3.61064  -0.71717  -0.68353
 Alpha  occ. eigenvalues --   -0.68353  -0.46221  -0.42035  -0.41277  -0.41277
 Alpha  occ. eigenvalues --   -0.39761  -0.39761  -0.38762  -0.30970  -0.30970
 Alpha  occ. eigenvalues --   -0.18291
 Alpha virt. eigenvalues --    0.00963   0.03269   0.03269   0.05550   0.07194
 Alpha virt. eigenvalues --    0.07194   0.09237   0.09237   0.09301   0.10183
 Alpha virt. eigenvalues --    0.10183   0.11564   0.14525   0.14525   0.17047

  Beta  occ. eigenvalues --  -66.06864 -10.15071 -10.15071 -10.15071  -5.25092
  Beta  occ. eigenvalues --   -3.60834  -3.60834  -3.60654  -0.71278  -0.68134
  Beta  occ. eigenvalues --   -0.68134  -0.44716  -0.41403  -0.41171  -0.41171
  Beta  occ. eigenvalues --   -0.39421  -0.39421  -0.38698  -0.30475  -0.30475
  Beta virt. eigenvalues --   -0.07159   0.01164   0.03627   0.03627   0.05657
  Beta virt. eigenvalues --    0.07178   0.07178   0.10158   0.10269   0.10269
  Beta virt. eigenvalues --    0.10648   0.10648   0.11513   0.14590   0.14590

 Mulliken charges and spin densities:
               1          2
     1  Si   0.471373   0.951979
     2  C   -0.285557  -0.015250
     3  C   -0.285557  -0.015250
     4  C   -0.285557  -0.015250
     5  H    0.034003   0.030483
     6  H    0.047215   0.000387
     7  H    0.047215   0.000387
     8  H    0.034003   0.030483
     9  H    0.047215   0.000387
    10  H    0.047215   0.000387
    11  H    0.034003   0.030483
    12  H    0.047215   0.000387
    13  H    0.047215   0.000387
 Sum of Mulliken charges =  -0.00000   1.00000

 Dipole moment (field-independent basis, Debye):
    X=              0.0000    Y=              0.0000    Z=             -0.5613  Tot=              0.5613
 Quadrupole moment (field-independent basis, Debye-Ang):
   XX=            -35.3495   YY=            -35.3495   ZZ=            -36.4912
   XY=             -0.0000   XZ=              0.0000   YZ=              0.0000

  Exact polarizability:  72.630  -0.000  72.625   0.000   0.002  59.329
 Approx polarizability:  92.602  -0.000  92.602   0.000   0.000  83.645

                      1                      2                      3
                     A2                      E                      E
 Frequencies --    126.4867               144.2282               144.2282
 Red. masses --      1.0121                 1.0390                 1.0390
 Frc consts  --      0.0095                 0.0127                 0.0127
 IR Inten    --      0.0000                 0.0018                 0.0018

                      4                      5                      6
                      E                      E                     A1
 Frequencies --    200.6176               200.6196               227.8138
 Red. masses --      2.3678                 2.3678                 2.5285
 Frc consts  --      0.0561                 0.0561                 0.0773
 IR Inten    --      1.0414                 1.0413                 0.9183

                      7                      8                      9
                     A1                      E                      E
 Frequencies --    591.9273               680.0058               680.0093
 Red. masses --      3.8819                 1.7523                 1.7522
 Frc consts  --      0.8014                 0.4774                 0.4774
 IR Inten    --      1.5741                16.1456                16.1448

                     10                     11                     12
                     A2                      E                      E
 Frequencies --    692.1434               716.9328               716.9338
 Red. masses --      1.1631                 1.7822                 1.7824
 Frc consts  --      0.3283                 0.5397                 0.5398
 IR Inten    --      0.0000                11.5955                11.5949

                     13                     14                     15
                      E                      E                     A1
 Frequencies --    863.0405               863.0411               866.4998
 Red. masses --      1.5188                 1.5188                 1.4907
 Frc consts  --      0.6665                 0.6665                 0.6595
 IR Inten    --     62.7894                62.7836                53.3760

                     16                     17                     18
                      E                      E                     A1
 Frequencies --   1274.9295              1274.9295              1286.4499
 Red. masses --      1.2330                 1.2330                 1.2052
 Frc consts  --      1.1808                 1.1808                 1.1752
 IR Inten    --     18.3433                18.3419                 3.1092

                     19                     20                     21
                     A2                      E                      E
 Frequencies --   1445.0775              1453.5257              1453.5257
 Red. masses --      1.0555                 1.0541                 1.0541
 Frc consts  --      1.2987                 1.3122                 1.3122
 IR Inten    --      0.0000                 0.3080                 0.3079

                     22                     23                     24
                      E                      E                     A1
 Frequencies --   1457.7374              1457.7374              1470.4141
 Red. masses --      1.0511                 1.0511                 1.0474
 Frc consts  --      1.3160                 1.3160                 1.3343
 IR Inten    --     10.9191                10.9181                 7.7201

                     25                     26                     27
                      E                      E                     A1
 Frequencies --   3007.2940              3007.2940              3008.7990
 Red. masses --      1.0415                 1.0415                 1.0411
 Frc consts  --      5.5498                 5.5498                 5.5532
 IR Inten    --     12.2875                12.2870                20.7082

                     28                     29                     30
                      E                      E                     A1
 Frequencies --   3079.8132              3079.8132              3080.7525
 Red. masses --      1.0913                 1.0913                 1.0908
 Frc consts  --      6.0989                 6.0989                 6.0995
 IR Inten    --      3.0361                 3.0350                25.3306

                     31                     32                     33
                     A2                      E                      E
 Frequencies --   3105.9793              3106.3957              3106.3957
 Red. masses --      1.1006                 1.1005                 1.1005
 Frc consts  --      6.2560                 6.2570                 6.2570
 IR Inten    --      0.0000                13.7017                13.7033

 - Thermochemistry -
 -------------------
 Temperature   298.150 Kelvin.  Pressure   1.00000 Atm.
 Atom     1 has atomic number 14 and mass  27.97693

 Molecular mass:    73.04735 amu.
 Principal axes and moments of inertia in atomic units:
                           1         2         3
     Eigenvalues --   330.86951 330.86951 583.11739
           X            0.84658   0.53227   0.00000
           Y           -0.53227   0.84658   0.00000
           Z           -0.00000  -0.00000   1.00000
 This molecule is an oblate symmetric top.
 Rotational symmetry number  3.
 Rotational temperatures (Kelvin)      0.26178     0.26178     0.14854
 Rotational constants (GHZ):           5.45454     5.45454     3.09499
 Zero-point vibrational energy     286334.5 (Joules/Mol)
                                   68.43559 (Kcal/Mol)
 Warning -- explicit consideration of   7 degrees of freedom as
           vibrations may cause significant error
 Vibrational temperatures:    181.99   207.51   207.51   288.64   288.65
          (Kelvin)            327.77   851.65   978.38   978.38   995.84
                             1031.51  1031.51  1241.72  1241.72  1246.70
                             1834.34  1834.34  1850.91  2079.14  2091.30
                             2091.30  2097.36  2097.36  2115.60  4326.83
                             4326.83  4328.99  4431.16  4431.16  4432.52
                             4468.81  4469.41  4469.41

 Zero-point correction=                           0.109059 (Hartree/Particle)
 Thermal correction to Energy=                    0.116513
 Thermal correction to Enthalpy=                  0.117457
 Thermal correction to Gibbs Free Energy=         0.078995
 Sum of electronic and zero-point Energies=           -409.193298
 Sum of electronic and thermal Energies=              -409.185844
 Sum of electronic and thermal Enthalpies=            -409.184900
 Sum of electronic and thermal Free Energies=         -409.223362

                     E (Thermal)             CV                S
                      KCal/Mol        Cal/Mol-Kelvin    Cal/Mol-Kelvin
 Total                   73.113             25.060             80.951
 Electronic               0.000              0.000              1.377
 Translational            0.889              2.981             38.782
 Rotational               0.889              2.981             23.477
 Vibrational             71.336             19.098             17.315
 Vibration     1          0.611              1.927              2.999
 Vibration     2          0.616              1.909              2.747
 Vibration     3          0.616              1.909              2.747
 Vibration     4          0.638              1.839              2.127
 Vibration     5          0.638              1.839              2.127
 Vibration     6          0.651              1.799              1.896
 Vibration     7          0.949              1.049              0.464

 Optimization completed.
    -- Stationary point found.
 Normal termination of Gaussian 16 at Fri Jun 17 17:35:13 2022.
