 Gaussian 16, Revision B.01,
 Gaussian 16:  ES64L-G16RevB.01 20-Dec-2017

 --------------------
 # b3lyp/gen opt freq
 --------------------

 -------------------------------
 trimethylsilanol, B3LYP/pcseg-2
 -------------------------------
 Symbolic Z-matrix:
 Charge =  0 Multiplicity = 1

 SCF Done:  E(RB3LYP) =  -485.274359194     A.U. after   12 cycles
 SCF Done:  E(RB3LYP) =  -485.274492349     A.U. after    8 cycles
 SCF Done:  E(RB3LYP) =  -485.274506138     A.U. after    7 cycles
 SCF Done:  E(RB3LYP) =  -485.274510009     A.U. after    7 cycles
 SCF Done:  E(RB3LYP) =  -485.274510734     A.U. after    6 cycles
 SCF Done:  E(RB3LYP) =  -485.274510842     A.U. after    6 cycles
 SCF Done:  E(RB3LYP) =  -485.274510973     A.U. after    5 cycles
 SCF Done:  E(RB3LYP) =  -485.274511052     A.U. after    6 cycles
 Optimization completed.
    -- Stationary point found.
 Normal termination of Gaussian 16 at Thu Jun 16 10:10:36 2022.

 ------------------------------------------------------------------
 #N Geom=AllCheck Guess=TCheck SCRF=Check GenChk RB3LYP/ChkBas Freq
 ------------------------------------------------------------------

 Structure from the checkpoint file:  "/wrk/irikura/Gau-32234.chk"
 -------------------------------
 trimethylsilanol, B3LYP/pcseg-2
 -------------------------------
 Charge =  0 Multiplicity = 1

                         Standard orientation:
 ---------------------------------------------------------------------
 Center     Atomic      Atomic             Coordinates (Angstroms)
 Number     Number       Type             X           Y           Z
 ---------------------------------------------------------------------
      1         14           0        0.007479    0.031626    0.000000
      2          8           0        0.594109    1.590023    0.000000
      3          6           0       -1.851781    0.222437   -0.000000
      4          6           0        0.594109   -0.881072    1.533515
      5          6           0        0.594109   -0.881072   -1.533515
      6          1           0       -2.350363   -0.748794   -0.000000
      7          1           0       -2.187204    0.771497    0.881322
      8          1           0       -2.187204    0.771497   -0.881322
      9          1           0        0.189257   -1.894856    1.570858
     10          1           0        1.683125   -0.964796    1.557541
     11          1           0        0.281103   -0.363446    2.442038
     12          1           0        0.189257   -1.894856   -1.570858
     13          1           0        1.683125   -0.964796   -1.557541
     14          1           0        0.281103   -0.363446   -2.442038
     15          1           0        1.541592    1.727284    0.000000
 ---------------------------------------------------------------------

 SCF Done:  E(RB3LYP) =  -485.274511052     A.U. after    1 cycles

 The electronic state is 1-A'.
 Alpha  occ. eigenvalues --  -66.08234 -19.11210 -10.14567 -10.14567 -10.14303
 Alpha  occ. eigenvalues --   -5.26249  -3.62158  -3.61948  -3.61943  -0.99221
 Alpha  occ. eigenvalues --   -0.71439  -0.68195  -0.68110  -0.53485  -0.43583
 Alpha  occ. eigenvalues --   -0.41689  -0.41268  -0.40725  -0.39795  -0.39059
 Alpha  occ. eigenvalues --   -0.38465  -0.35016  -0.34238  -0.29942  -0.28680
 Alpha virt. eigenvalues --   -0.00178   0.02955   0.04420   0.04654   0.05732
 Alpha virt. eigenvalues --    0.06999   0.07425   0.09931   0.10211   0.10631
 Alpha virt. eigenvalues --    0.11687   0.12216   0.12793   0.14206   0.14631

 Mulliken charges:
               1
     1  Si   0.890573
     2  O   -0.529253
     3  C   -0.282308
     4  C   -0.304421
     5  C   -0.304421
     6  H    0.029537
     7  H    0.044106
     8  H    0.044106
     9  H    0.034214
    10  H    0.034739
    11  H    0.045166
    12  H    0.034214
    13  H    0.034739
    14  H    0.045166
    15  H    0.183840
 Sum of Mulliken charges =   0.00000

 Dipole moment (field-independent basis, Debye):
    X=              0.9273    Y=             -0.9493    Z=             -0.0000  Tot=              1.3271
 Quadrupole moment (field-independent basis, Debye-Ang):
   XX=            -37.3992   YY=            -42.9994   ZZ=            -41.3428
   XY=              2.2914   XZ=             -0.0000   YZ=             -0.0000

  Exact polarizability:  67.342  -2.405  62.033  -0.000  -0.000  67.799
 Approx polarizability:  88.721  -1.013  85.785  -0.000  -0.000  87.298

                      1                      2                      3
                     A"                     A"                     A'
 Frequencies --    128.3605               148.1889               164.0810
 Red. masses --      1.0287                 1.0909                 1.0334
 Frc consts  --      0.0100                 0.0141                 0.0164
 IR Inten    --      5.6215                13.8638                 0.0072

                      4                      5                      6
                     A"                     A'                     A"
 Frequencies --    172.1837               196.2866               216.3209
 Red. masses --      1.2836                 2.3854                 1.5475
 Frc consts  --      0.0224                 0.0542                 0.0427
 IR Inten    --     26.7949                 0.3289                43.4264

                      7                      8                      9
                     A'                     A'                     A"
 Frequencies --    238.0740               280.4678               286.9801
 Red. masses --      2.3720                 2.8717                 3.5414
 Frc consts  --      0.0792                 0.1331                 0.1718
 IR Inten    --      2.3615                13.6274                36.2193

                     10                     11                     12
                     A'                     A"                     A"
 Frequencies --    600.9877               681.6712               683.0687
 Red. masses --      3.6903                 2.0966                 1.1935
 Frc consts  --      0.7853                 0.5740                 0.3281
 IR Inten    --      0.1242                11.8150                 0.6440

                     13                     14                     15
                     A'                     A'                     A"
 Frequencies --    693.6741               739.8520               763.1254
 Red. masses --      2.0840                 1.3916                 1.5287
 Frc consts  --      0.5908                 0.4488                 0.5245
 IR Inten    --      8.1241                82.0437                38.0847

                     16                     17                     18
                     A'                     A'                     A"
 Frequencies --    790.0655               818.2815               863.5167
 Red. masses --      2.5356                 1.2469                 1.6760
 Frc consts  --      0.9325                 0.4919                 0.7363
 IR Inten    --     44.3259                49.5368               108.8652

                     19                     20                     21
                     A'                     A'                     A"
 Frequencies --    884.2113               925.0278              1290.6620
 Red. masses --      1.8554                 2.3399                 1.2588
 Frc consts  --      0.8547                 1.1796                 1.2355
 IR Inten    --    212.9617                99.6842                42.0661

                     22                     23                     24
                     A'                     A'                     A"
 Frequencies --   1292.2206              1299.0085              1451.4538
 Red. masses --      1.2617                 1.2318                 1.0538
 Frc consts  --      1.2413                 1.2246                 1.3080
 IR Inten    --     44.6006                13.4567                 0.0855

                     25                     26                     27
                     A"                     A'                     A"
 Frequencies --   1455.8300              1457.0459              1463.2625
 Red. masses --      1.0536                 1.0522                 1.0478
 Frc consts  --      1.3156                 1.3161                 1.3218
 IR Inten    --      0.0480                 0.0005                 3.9580

                     28                     29                     30
                     A'                     A'                     A"
 Frequencies --   1465.3364              1472.9354              3021.4401
 Red. masses --      1.0481                 1.0465                 1.0355
 Frc consts  --      1.3260                 1.3377                 5.5696
 IR Inten    --      3.9976                11.4521                 6.3971

                     31                     32                     33
                     A'                     A'                     A"
 Frequencies --   3023.1918              3030.2107              3085.9969
 Red. masses --      1.0353                 1.0351                 1.0994
 Frc consts  --      5.5753                 5.5999                 6.1687
 IR Inten    --      7.0831                 3.5628                 0.2096

                     34                     35                     36
                     A'                     A'                     A"
 Frequencies --   3088.9010              3096.1556              3096.3530
 Red. masses --      1.0989                 1.1000                 1.1000
 Frc consts  --      6.1774                 6.2127                 6.2136
 IR Inten    --     30.7314                 6.5441                 7.3182

                     37                     38                     39
                     A'                     A"                     A'
 Frequencies --   3099.8859              3103.2976              3897.8658
 Red. masses --      1.0995                 1.1000                 1.0667
 Frc consts  --      6.2249                 6.2417                 9.5484
 IR Inten    --     23.4839                13.4685                59.7691

 - Thermochemistry -
 -------------------
 Temperature   298.150 Kelvin.  Pressure   1.00000 Atm.
 Atom     1 has atomic number 14 and mass  27.97693

 Molecular mass:    90.05009 amu.
 Principal axes and moments of inertia in atomic units:
                           1         2         3
     Eigenvalues --   535.64063 544.51646 579.45831
           X            0.84209   0.00000   0.53934
           Y           -0.53934   0.00000   0.84209
           Z            0.00000   1.00000  -0.00000
 This molecule is an asymmetric top.
 Rotational symmetry number  1.
 Warning -- assumption of classical behavior for rotation
           may cause significant error
 Rotational temperatures (Kelvin)      0.16170     0.15907     0.14947
 Rotational constants (GHZ):           3.36931     3.31439     3.11453
 Zero-point vibrational energy     325775.9 (Joules/Mol)
                                   77.86231 (Kcal/Mol)
 Warning -- explicit consideration of  10 degrees of freedom as
           vibrations may cause significant error
 Vibrational temperatures:    184.68   213.21   236.08   247.73   282.41
          (Kelvin)            311.24   342.54   403.53   412.90   864.69
                              980.77   982.78   998.04  1064.48  1097.97
                             1136.73  1177.32  1242.41  1272.18  1330.91
                             1856.97  1859.22  1868.98  2088.32  2094.61
                             2096.36  2105.31  2108.29  2119.23  4347.18
                             4349.70  4359.80  4440.06  4444.24  4454.68
                             4454.96  4460.04  4464.95  5608.16

 Zero-point correction=                           0.124081 (Hartree/Particle)
 Thermal correction to Energy=                    0.133049
 Thermal correction to Enthalpy=                  0.133993
 Thermal correction to Gibbs Free Energy=         0.091924
 Sum of electronic and zero-point Energies=           -485.150430
 Sum of electronic and thermal Energies=              -485.141462
 Sum of electronic and thermal Enthalpies=            -485.140518
 Sum of electronic and thermal Free Energies=         -485.182587

                     E (Thermal)             CV                S
                      KCal/Mol        Cal/Mol-Kelvin    Cal/Mol-Kelvin
 Total                   83.489             31.270             88.540
 Electronic               0.000              0.000              0.000
 Translational            0.889              2.981             39.406
 Rotational               0.889              2.981             26.627
 Vibrational             81.712             25.308             22.508
 Vibration     1          0.611              1.925              2.970
 Vibration     2          0.618              1.905              2.695
 Vibration     3          0.623              1.887              2.502
 Vibration     4          0.626              1.877              2.412
 Vibration     5          0.636              1.845              2.168
 Vibration     6          0.645              1.816              1.990
 Vibration     7          0.656              1.782              1.817
 Vibration     8          0.680              1.710              1.531
 Vibration     9          0.684              1.698              1.492
 Vibration    10          0.959              1.030              0.448

 Optimization completed.
    -- Stationary point found.
 Normal termination of Gaussian 16 at Thu Jun 16 10:14:09 2022.
