 Gaussian 16, Revision B.01,
 Gaussian 16:  ES64L-G16RevB.01 20-Dec-2017

 ---------------------------------------
 # b3lyp/gen opt freq CPHF(Grid=OneStep)
 ---------------------------------------

 -------------------------------
 trimethylsiloxyl, B3LYP/pcseg-2
 -------------------------------
 Symbolic Z-matrix:
 Charge =  0 Multiplicity = 2

 SCF Done:  E(UB3LYP) =  -484.581468542     A.U. after   16 cycles
 SCF Done:  E(UB3LYP) =  -484.581561364     A.U. after    9 cycles
 SCF Done:  E(UB3LYP) =  -484.581566630     A.U. after   10 cycles
 SCF Done:  E(UB3LYP) =  -484.581569192     A.U. after   10 cycles
 SCF Done:  E(UB3LYP) =  -484.581569424     A.U. after    8 cycles
 Optimization completed.
    -- Stationary point found.
 Normal termination of Gaussian 16 at Sat Sep 16 14:23:21 2023.

 ------------------------------------------------------------------
 #N Geom=AllCheck Guess=TCheck SCRF=Check GenChk UB3LYP/ChkBas Freq
 ------------------------------------------------------------------

 Structure from the checkpoint file:  "/wrk/irikura/Gau-254954.chk"
 -------------------------------
 trimethylsiloxyl, B3LYP/pcseg-2
 -------------------------------
 Charge =  0 Multiplicity = 2

                         Standard orientation:
 ---------------------------------------------------------------------
 Center     Atomic      Atomic             Coordinates (Angstroms)
 Number     Number       Type             X           Y           Z
 ---------------------------------------------------------------------
      1         14           0       -0.062235    0.047863   -0.000000
      2          8           0       -0.609050    1.618521   -0.000000
      3          6           0        1.809483    0.336101   -0.000000
      4          6           0       -0.609050   -0.867456    1.542955
      5          6           0       -0.609050   -0.867456   -1.542955
      6          1           0        2.299122   -0.640884   -0.000000
      7          1           0        2.123714    0.885195   -0.885912
      8          1           0        2.123714    0.885195    0.885912
      9          1           0       -0.204734   -1.881904    1.559677
     10          1           0       -0.274093   -0.350972    2.443057
     11          1           0       -1.696755   -0.944568    1.585804
     12          1           0       -0.204734   -1.881904   -1.559677
     13          1           0       -0.274093   -0.350972   -2.443057
     14          1           0       -1.696755   -0.944568   -1.585804
 ---------------------------------------------------------------------

 SCF Done:  E(UB3LYP) =  -484.581569424     A.U. after    1 cycles

 The electronic state is 2-A'.
 Alpha  occ. eigenvalues --  -66.09042 -19.15289 -10.16804 -10.15633 -10.15633
 Alpha  occ. eigenvalues --   -5.27211  -3.63116  -3.62917  -3.62865  -0.96958
 Alpha  occ. eigenvalues --   -0.72541  -0.69714  -0.69171  -0.47627  -0.43408
 Alpha  occ. eigenvalues --   -0.42818  -0.42791  -0.41678  -0.40711  -0.39713
 Alpha  occ. eigenvalues --   -0.38866  -0.36247  -0.34998  -0.31116  -0.29699
 Alpha virt. eigenvalues --    0.00073   0.03733   0.04046   0.05074   0.05897
 Alpha virt. eigenvalues --    0.06703   0.06806   0.09342   0.09794   0.11245
 Alpha virt. eigenvalues --    0.11393   0.12543   0.13678   0.14173   0.14321

  Beta  occ. eigenvalues --  -66.09067 -19.12990 -10.16601 -10.15604 -10.15604
  Beta  occ. eigenvalues --   -5.27237  -3.63150  -3.62952  -3.62889  -0.90741
  Beta  occ. eigenvalues --   -0.72138  -0.69376  -0.69109  -0.46748  -0.42927
  Beta  occ. eigenvalues --   -0.42657  -0.42130  -0.40988  -0.40631  -0.39681
  Beta  occ. eigenvalues --   -0.34596  -0.33917  -0.32411  -0.28481
  Beta virt. eigenvalues --   -0.17059   0.00119   0.04007   0.04076   0.05118
  Beta virt. eigenvalues --    0.06156   0.06741   0.06869   0.09419   0.09802
  Beta virt. eigenvalues --    0.11263   0.11527   0.13060   0.13700   0.14364

 Mulliken charges and spin densities:
               1          2
     1  Si   0.889627  -0.034562
     2  O   -0.432982   0.887598
     3  C   -0.292152   0.099510
     4  C   -0.294794   0.017143
     5  C   -0.294794   0.017143
     6  H    0.036799   0.016307
     7  H    0.059727  -0.002543
     8  H    0.059727  -0.002543
     9  H    0.035229   0.001110
    10  H    0.051420  -0.000466
    11  H    0.047771   0.000329
    12  H    0.035229   0.001110
    13  H    0.051420  -0.000466
    14  H    0.047771   0.000329
 Sum of Mulliken charges =  -0.00000   1.00000

 Dipole moment (field-independent basis, Debye):
    X=              0.9558    Y=             -2.2688    Z=             -0.0000  Tot=              2.4619
 Quadrupole moment (field-independent basis, Debye-Ang):
   XX=            -38.4256   YY=            -44.0211   ZZ=            -39.4771
   XY=              1.8539   XZ=             -0.0000   YZ=              0.0000

  Exact polarizability:  69.898  -1.265  64.734   0.000  -0.000  72.731
 Approx polarizability:  95.113  -8.553  94.062   0.000  -0.000  86.828

                      1                      2                      3
                     A"                     A"                     A'
 Frequencies --    116.6029               135.0125               148.8890
 Red. masses --      1.0123                 1.0940                 1.0358
 Frc consts  --      0.0081                 0.0117                 0.0135
 IR Inten    --      0.0163                 0.0100                 0.0599

                      4                      5                      6
                     A"                     A'                     A'
 Frequencies --    173.3170               189.5464               230.3406
 Red. masses --      2.5440                 2.8863                 2.5403
 Frc consts  --      0.0450                 0.0611                 0.0794
 IR Inten    --      0.1417                 1.3662                 0.8544

                      7                      8                      9
                     A'                     A"                     A'
 Frequencies --    243.2927               250.9962               589.0674
 Red. masses --      3.6178                 3.5611                 3.8632
 Frc consts  --      0.1262                 0.1322                 0.7898
 IR Inten    --     14.8793                 6.3829                 0.0016

                     10                     11                     12
                     A'                     A"                     A"
 Frequencies --    668.2577               678.6226               695.1901
 Red. masses --      4.9003                 1.5250                 1.1982
 Frc consts  --      1.2893                 0.4138                 0.3412
 IR Inten    --     12.7036                10.0591                 1.3902

                     13                     14                     15
                     A'                     A"                     A'
 Frequencies --    696.9197               720.5929               787.3358
 Red. masses --      1.3706                 1.9921                 2.1389
 Frc consts  --      0.3922                 0.6095                 0.7812
 IR Inten    --      1.3409                10.2512                16.3366

                     16                     17                     18
                     A'                     A"                     A'
 Frequencies --    850.9399               855.0257               901.9092
 Red. masses --      1.4604                 1.5691                 2.3162
 Frc consts  --      0.6230                 0.6758                 1.1101
 IR Inten    --     39.8451                75.3352               103.6968

                     19                     20                     21
                     A'                     A"                     A'
 Frequencies --   1252.5431              1274.4780              1290.5578
 Red. masses --      1.2206                 1.2438                 1.2256
 Frc consts  --      1.1282                 1.1903                 1.2027
 IR Inten    --     13.0098                 7.6241                12.7076

                     22                     23                     24
                     A"                     A"                     A"
 Frequencies --   1438.3026              1451.1868              1457.3086
 Red. masses --      1.0564                 1.0544                 1.0517
 Frc consts  --      1.2876                 1.3083                 1.3160
 IR Inten    --      0.1756                 0.0947                 3.8707

                     25                     26                     27
                     A'                     A'                     A'
 Frequencies --   1457.5273              1460.7127              1473.2540
 Red. masses --      1.0542                 1.0490                 1.0478
 Frc consts  --      1.3194                 1.3187                 1.3400
 IR Inten    --      0.9514                 7.7697                10.7757

                     28                     29                     30
                     A"                     A'                     A'
 Frequencies --   3027.0128              3029.8198              3031.2878
 Red. masses --      1.0349                 1.0352                 1.0359
 Frc consts  --      5.5870                 5.5988                 5.6084
 IR Inten    --      9.5235                 3.5794                 6.3376

                     31                     32                     33
                     A"                     A'                     A'
 Frequencies --   3095.4773              3098.1109              3108.4096
 Red. masses --      1.0991                 1.0991                 1.0994
 Frc consts  --      6.2049                 6.2158                 6.2585
 IR Inten    --      1.2279                15.3578                 2.3638

                     34                     35                     36
                     A"                     A'                     A"
 Frequencies --   3108.8188              3110.5585              3134.9899
 Red. masses --      1.1005                 1.0967                 1.1024
 Frc consts  --      6.2663                 6.2520                 6.3837
 IR Inten    --      7.0579                15.0474                 6.3647

 - Thermochemistry -
 -------------------
 Temperature   298.150 Kelvin.  Pressure   1.00000 Atm.
 Atom     1 has atomic number 14 and mass  27.97693

 Molecular mass:    89.04227 amu.
 Principal axes and moments of inertia in atomic units:
                           1         2         3
     Eigenvalues --   511.89527 524.57655 589.20574
           X            0.74499   0.00000  -0.66708
           Y            0.66708   0.00000   0.74499
           Z            0.00000   1.00000  -0.00000
 This molecule is an asymmetric top.
 Rotational symmetry number  1.
 Warning -- assumption of classical behavior for rotation
           may cause significant error
 Rotational temperatures (Kelvin)      0.16920     0.16511     0.14700
 Rotational constants (GHZ):           3.52561     3.44038     3.06301
 Zero-point vibrational energy     294474.0 (Joules/Mol)
                                   70.38098 (Kcal/Mol)
 Warning -- explicit consideration of   9 degrees of freedom as
           vibrations may cause significant error
 Vibrational temperatures:    167.77   194.25   214.22   249.36   272.71
          (Kelvin)            331.41   350.04   361.13   847.54   961.47
                              976.39  1000.22  1002.71  1036.77  1132.80
                             1224.31  1230.19  1297.65  1802.13  1833.69
                             1856.82  2069.40  2087.93  2096.74  2097.06
                             2101.64  2119.68  4355.20  4359.23  4361.35
                             4453.70  4457.49  4472.31  4472.90  4475.40
                             4510.55

 Zero-point correction=                           0.112159 (Hartree/Particle)
 Thermal correction to Energy=                    0.120771
 Thermal correction to Enthalpy=                  0.121716
 Thermal correction to Gibbs Free Energy=         0.079449
 Sum of electronic and zero-point Energies=           -484.469410
 Sum of electronic and thermal Energies=              -484.460798
 Sum of electronic and thermal Enthalpies=            -484.459854
 Sum of electronic and thermal Free Energies=         -484.502121

                     E (Thermal)             CV                S
                      KCal/Mol        Cal/Mol-Kelvin    Cal/Mol-Kelvin
 Total                   75.785             29.375             88.958
 Electronic               0.000              0.000              1.377
 Translational            0.889              2.981             39.372
 Rotational               0.889              2.981             26.562
 Vibrational             74.008             23.413             21.647
 Vibration     1          0.608              1.936              3.156
 Vibration     2          0.613              1.918              2.873
 Vibration     3          0.618              1.904              2.686
 Vibration     4          0.627              1.875              2.399
 Vibration     5          0.633              1.854              2.232
 Vibration     6          0.652              1.795              1.876
 Vibration     7          0.659              1.774              1.779
 Vibration     8          0.663              1.761              1.724
 Vibration     9          0.946              1.055              0.469

                           ! Non-Optimized Parameters !
 Normal termination of Gaussian 16 at Sat Sep 16 14:30:13 2023.
