 Gaussian 16, Revision B.01,

 ---------------------------------------
 # b3lyp/gen opt freq CPHF(Grid=OneStep)
 ---------------------------------------

 -------------------------------
 trimethylsiloxyl, B3LYP/pcseg-2
 -------------------------------
 Symbolic Z-matrix:
 Charge =  0 Multiplicity = 2

 SCF Done:  E(UB3LYP) =  -484.581569424     A.U. after   16 cycles
 Optimization completed.
    -- Stationary point found.
 Normal termination of Gaussian 16 at Sat Sep 30 18:54:59 2023.

 ------------------------------------------------------------------
 #N Geom=AllCheck Guess=TCheck SCRF=Check GenChk UB3LYP/ChkBas Freq
 ------------------------------------------------------------------

 Structure from the checkpoint file:  "me3sio.chk"
 -------------------------------
 trimethylsiloxyl, B3LYP/pcseg-2
 -------------------------------
 Charge =  0 Multiplicity = 2

 SCF Done:  E(UB3LYP) =  -484.581569424     A.U. after    1 cycles

  Exact polarizability:  69.898  -1.265  64.734   0.000  -0.000  72.731
 Approx polarizability:  95.113  -8.553  94.062  -0.000  -0.000  86.828

                      1                      2                      3
                     A"                     A"                     A'
 Frequencies --    116.5987               135.0093               148.8871
 Red. masses --      1.0123                 1.0940                 1.0358
 Frc consts  --      0.0081                 0.0117                 0.0135
 IR Inten    --      0.0163                 0.0100                 0.0599

                      4                      5                      6
                     A"                     A'                     A'
 Frequencies --    173.3160               189.5462               230.3405
 Red. masses --      2.5440                 2.8863                 2.5403
 Frc consts  --      0.0450                 0.0611                 0.0794
 IR Inten    --      0.1417                 1.3662                 0.8546

                      7                      8                      9
                     A'                     A"                     A'
 Frequencies --    243.2923               250.9954               589.0676
 Red. masses --      3.6178                 3.5611                 3.8632
 Frc consts  --      0.1262                 0.1322                 0.7898
 IR Inten    --     14.8792                 6.3828                 0.0016

                     10                     11                     12
                     A'                     A"                     A"
 Frequencies --    668.2581               678.6225               695.1888
 Red. masses --      4.9003                 1.5250                 1.1982
 Frc consts  --      1.2893                 0.4138                 0.3412
 IR Inten    --     12.7035                10.0591                 1.3901

                     13                     14                     15
                     A'                     A"                     A'
 Frequencies --    696.9192               720.5919               787.3357
 Red. masses --      1.3706                 1.9921                 2.1389
 Frc consts  --      0.3922                 0.6095                 0.7812
 IR Inten    --      1.3409                10.2509                16.3369

                     16                     17                     18
                     A'                     A"                     A'
 Frequencies --    850.9392               855.0249               901.9089
 Red. masses --      1.4604                 1.5691                 2.3162
 Frc consts  --      0.6230                 0.6758                 1.1101
 IR Inten    --     39.8450                75.3352               103.6968

                     19                     20                     21
                     A'                     A"                     A'
 Frequencies --   1252.5429              1274.4771              1290.5572
 Red. masses --      1.2206                 1.2438                 1.2256
 Frc consts  --      1.1282                 1.1903                 1.2027
 IR Inten    --     13.0099                 7.6239                12.7077

                     22                     23                     24
                     A"                     A"                     A"
 Frequencies --   1438.3023              1451.1867              1457.3079
 Red. masses --      1.0564                 1.0544                 1.0517
 Frc consts  --      1.2876                 1.3083                 1.3160
 IR Inten    --      0.1755                 0.0948                 3.8707

                     25                     26                     27
                     A'                     A'                     A'
 Frequencies --   1457.5268              1460.7126              1473.2535
 Red. masses --      1.0542                 1.0490                 1.0478
 Frc consts  --      1.3194                 1.3187                 1.3400
 IR Inten    --      0.9514                 7.7696                10.7756

                     28                     29                     30
                     A"                     A'                     A'
 Frequencies --   3027.0135              3029.8206              3031.2885
 Red. masses --      1.0349                 1.0352                 1.0359
 Frc consts  --      5.5870                 5.5989                 5.6084
 IR Inten    --      9.5236                 3.5790                 6.3381

                     31                     32                     33
                     A"                     A'                     A'
 Frequencies --   3095.4792              3098.1126              3108.4108
 Red. masses --      1.0991                 1.0991                 1.0994
 Frc consts  --      6.2049                 6.2158                 6.2585
 IR Inten    --      1.2295                15.3562                 2.3650

                     34                     35                     36
                     A"                     A'                     A"
 Frequencies --   3108.8197              3110.5596              3134.9921
 Red. masses --      1.1005                 1.0967                 1.1024
 Frc consts  --      6.2663                 6.2520                 6.3837
 IR Inten    --      7.0562                15.0473                 6.3647

 - Thermochemistry -
 -------------------
 Temperature   298.150 Kelvin.  Pressure   1.00000 Atm.
 Atom     1 has atomic number 14 and mass  27.97693

 Molecular mass:    89.04227 amu.
 Principal axes and moments of inertia in atomic units:
                           1         2         3
     Eigenvalues --   511.89521 524.57656 589.20570
           X            0.74499   0.00000  -0.66708
           Y            0.66708   0.00000   0.74499
           Z            0.00000   1.00000  -0.00000
 This molecule is an asymmetric top.
 Rotational symmetry number  1.
 Warning -- assumption of classical behavior for rotation
           may cause significant error
 Rotational temperatures (Kelvin)      0.16920     0.16511     0.14700
 Rotational constants (GHZ):           3.52561     3.44038     3.06301
 Zero-point vibrational energy     294474.0 (Joules/Mol)
                                   70.38097 (Kcal/Mol)
 Warning -- explicit consideration of   9 degrees of freedom as
           vibrations may cause significant error
 Vibrational temperatures:    167.76   194.25   214.22   249.36   272.71
          (Kelvin)            331.41   350.04   361.13   847.54   961.47
                              976.39  1000.22  1002.71  1036.77  1132.80
                             1224.31  1230.19  1297.65  1802.13  1833.69
                             1856.82  2069.40  2087.93  2096.74  2097.06
                             2101.64  2119.68  4355.20  4359.24  4361.35
                             4453.70  4457.49  4472.31  4472.90  4475.40
                             4510.55

 Zero-point correction=                           0.112159 (Hartree/Particle)
 Thermal correction to Energy=                    0.120771
 Thermal correction to Enthalpy=                  0.121716
 Thermal correction to Gibbs Free Energy=         0.079449
 Sum of electronic and zero-point Energies=           -484.469410
 Sum of electronic and thermal Energies=              -484.460798
 Sum of electronic and thermal Enthalpies=            -484.459854
 Sum of electronic and thermal Free Energies=         -484.502121

                     E (Thermal)             CV                S
                      KCal/Mol        Cal/Mol-Kelvin    Cal/Mol-Kelvin
 Total                   75.785             29.375             88.959
 Electronic               0.000              0.000              1.377
 Translational            0.889              2.981             39.372
 Rotational               0.889              2.981             26.562
 Vibrational             74.008             23.414             21.647
 Vibration     1          0.608              1.936              3.156
 Vibration     2          0.613              1.918              2.873
 Vibration     3          0.618              1.904              2.686
 Vibration     4          0.627              1.875              2.399
 Vibration     5          0.633              1.854              2.232
 Vibration     6          0.652              1.795              1.876
 Vibration     7          0.659              1.774              1.779
 Vibration     8          0.663              1.761              1.724
 Vibration     9          0.946              1.055              0.469

                           ! Non-Optimized Parameters !
 Normal termination of Gaussian 16 at Sat Sep 30 19:13:20 2023.
 Gaussian 16:  ES64L-G16RevB.01 20-Dec-2017

 ---------------------------------
 # rohf/gen geom=check guess=check
 ---------------------------------

 ----------------------------------
 trimethylsiloxyl, ROHF/cc-pVTZ-F12
 ----------------------------------
 Structure from the checkpoint file:  "me3sio.chk"
 Charge =  0 Multiplicity = 2

                         Standard orientation:
 ---------------------------------------------------------------------
 Center     Atomic      Atomic             Coordinates (Angstroms)
 Number     Number       Type             X           Y           Z
 ---------------------------------------------------------------------
      1         14           0       -0.062235    0.047863    0.000000
      2          8           0       -0.609050    1.618521    0.000000
      3          6           0        1.809483    0.336101   -0.000000
      4          6           0       -0.609050   -0.867456    1.542955
      5          6           0       -0.609050   -0.867456   -1.542955
      6          1           0        2.299122   -0.640884   -0.000000
      7          1           0        2.123714    0.885195   -0.885912
      8          1           0        2.123714    0.885195    0.885912
      9          1           0       -0.204734   -1.881904    1.559677
     10          1           0       -0.274093   -0.350972    2.443057
     11          1           0       -1.696755   -0.944568    1.585804
     12          1           0       -0.204734   -1.881904   -1.559677
     13          1           0       -0.274093   -0.350972   -2.443057
     14          1           0       -1.696755   -0.944568   -1.585804
 ---------------------------------------------------------------------

 SCF Done:  E(ROHF) =  -482.772196988     A.U. after   19 cycles

 The electronic state is 2-A'.
 Alpha  occ. eigenvalues --  -68.77526 -20.57633 -11.20419 -11.20418 -11.20250
 Alpha  occ. eigenvalues --   -6.12069  -4.22829  -4.22712  -4.22682  -1.24886
 Alpha  occ. eigenvalues --   -0.96849  -0.93305  -0.93038  -0.65012  -0.58123
 Alpha  occ. eigenvalues --   -0.57661  -0.56990  -0.55542  -0.55068  -0.53949
 Alpha  occ. eigenvalues --   -0.51745  -0.51622  -0.44258  -0.42869  -0.15563
 Alpha virt. eigenvalues --    0.03317   0.04141   0.04141   0.04527   0.08305
 Alpha virt. eigenvalues --    0.08397   0.09016   0.09105   0.09435   0.11325
 Alpha virt. eigenvalues --    0.11959   0.11971   0.12364   0.14963   0.15062

 Mulliken charges and spin densities:
               1          2
     1  Si   1.496167   0.030097
     2  O   -0.604960   0.953393
     3  C   -0.521899   0.009902
     4  C   -0.522103   0.001294
     5  C   -0.522103   0.001294
     6  H    0.070931   0.002821
     7  H    0.081762   0.000134
     8  H    0.081762   0.000134
     9  H    0.080434   0.000205
    10  H    0.073253  -0.000008
    11  H    0.066534   0.000269
    12  H    0.080434   0.000205
    13  H    0.073253  -0.000008
    14  H    0.066534   0.000269
 Sum of Mulliken charges =  -0.00000   1.00000

 Dipole moment (field-independent basis, Debye):
    X=              0.4277    Y=             -1.9274    Z=              0.0000  Tot=              1.9743
 Quadrupole moment (field-independent basis, Debye-Ang):
   XX=            -39.2307   YY=            -43.4069   ZZ=            -39.5518
   XY=              1.4437   XZ=             -0.0000   YZ=             -0.0000

 Normal termination of Gaussian 16 at Sat Sep 30 19:19:00 2023.
