 Gaussian 16, Revision B.01,

 ---------------------------------------
 # b3lyp/gen opt freq CPHF(Grid=OneStep)
 ---------------------------------------

 -------------------------------
 trimethylsilanol, B3LYP/pcseg-2
 -------------------------------
 Symbolic Z-matrix:
 Charge =  0 Multiplicity = 1

 SCF Done:  E(RB3LYP) =  -485.274511052     A.U. after   11 cycles
 Optimization completed.
    -- Stationary point found.
 Normal termination of Gaussian 16 at Wed Sep 27 10:34:09 2023.

 ------------------------------------------------------------------
 #N Geom=AllCheck Guess=TCheck SCRF=Check GenChk RB3LYP/ChkBas Freq
 ------------------------------------------------------------------

 Structure from the checkpoint file:  "Me3SiOH.chk"
 -------------------------------
 trimethylsilanol, B3LYP/pcseg-2
 -------------------------------
 Charge =  0 Multiplicity = 1

 SCF Done:  E(RB3LYP) =  -485.274511052     A.U. after    1 cycles

  Exact polarizability:  67.341  -2.407  62.033  -0.000  -0.000  67.801
 Approx polarizability:  88.721  -1.013  85.785  -0.000   0.000  87.298

                      1                      2                      3
                     A"                     A"                     A'
 Frequencies --    128.3650               148.1950               164.0896
 Red. masses --      1.0287                 1.0909                 1.0334
 Frc consts  --      0.0100                 0.0141                 0.0164
 IR Inten    --      5.6214                13.8695                 0.0072

                      4                      5                      6
                     A"                     A'                     A"
 Frequencies --    172.1865               196.2885               216.3196
 Red. masses --      1.2835                 2.3854                 1.5475
 Frc consts  --      0.0224                 0.0542                 0.0427
 IR Inten    --     26.7958                 0.3288                43.4293

                      7                      8                      9
                     A'                     A'                     A"
 Frequencies --    238.0793               280.4675               286.9775
 Red. masses --      2.3721                 2.8717                 3.5415
 Frc consts  --      0.0792                 0.1331                 0.1718
 IR Inten    --      2.3624                13.6254                36.2136

                     10                     11                     12
                     A'                     A"                     A"
 Frequencies --    600.9895               681.6670               683.0512
 Red. masses --      3.6903                 2.0991                 1.1928
 Frc consts  --      0.7853                 0.5747                 0.3279
 IR Inten    --      0.1240                11.8390                 0.6236

                     13                     14                     15
                     A'                     A'                     A"
 Frequencies --    693.6680               739.8679               763.1328
 Red. masses --      2.0838                 1.3916                 1.5286
 Frc consts  --      0.5908                 0.4488                 0.5245
 IR Inten    --      8.1168                82.1187                38.0739

                     16                     17                     18
                     A'                     A'                     A"
 Frequencies --    790.0709               818.2782               863.5159
 Red. masses --      2.5354                 1.2469                 1.6760
 Frc consts  --      0.9325                 0.4919                 0.7363
 IR Inten    --     44.3429                49.5119               108.8745

                     19                     20                     21
                     A'                     A'                     A"
 Frequencies --    884.2116               925.0300              1290.6581
 Red. masses --      1.8553                 2.3399                 1.2588
 Frc consts  --      0.8546                 1.1797                 1.2355
 IR Inten    --    212.9370                99.6697                42.0708

                     22                     23                     24
                     A'                     A'                     A"
 Frequencies --   1292.2179              1299.0103              1451.4527
 Red. masses --      1.2617                 1.2318                 1.0538
 Frc consts  --      1.2413                 1.2247                 1.3080
 IR Inten    --     44.5997                13.4620                 0.0854

                     25                     26                     27
                     A"                     A'                     A"
 Frequencies --   1455.8199              1457.0354              1463.2636
 Red. masses --      1.0536                 1.0522                 1.0478
 Frc consts  --      1.3156                 1.3161                 1.3218
 IR Inten    --      0.0479                 0.0005                 3.9571

                     28                     29                     30
                     A'                     A'                     A"
 Frequencies --   1465.3359              1472.9339              3021.4343
 Red. masses --      1.0481                 1.0465                 1.0355
 Frc consts  --      1.3260                 1.3377                 5.5696
 IR Inten    --      3.9969                11.4529                 6.3945

                     31                     32                     33
                     A'                     A'                     A"
 Frequencies --   3023.1882              3030.2111              3085.9864
 Red. masses --      1.0353                 1.0351                 1.0994
 Frc consts  --      5.5753                 5.5999                 6.1686
 IR Inten    --      7.0835                 3.5597                 0.2094

                     34                     35                     36
                     A'                     A'                     A"
 Frequencies --   3088.8979              3096.1485              3096.3450
 Red. masses --      1.0989                 1.1000                 1.1000
 Frc consts  --      6.1773                 6.2127                 6.2136
 IR Inten    --     30.7293                 6.5352                 7.3176

                     37                     38                     39
                     A'                     A"                     A'
 Frequencies --   3099.8831              3103.2995              3897.8671
 Red. masses --      1.0995                 1.1000                 1.0667
 Frc consts  --      6.2249                 6.2417                 9.5484
 IR Inten    --     23.4962                13.4724                59.7921

 - Thermochemistry -
 -------------------
 Temperature   298.150 Kelvin.  Pressure   1.00000 Atm.
 Atom     1 has atomic number 14 and mass  27.97693

 Molecular mass:    90.05009 amu.
 Principal axes and moments of inertia in atomic units:
                           1         2         3
     Eigenvalues --   535.64072 544.51648 579.45852
           X            0.84209   0.00000   0.53934
           Y           -0.53934   0.00000   0.84209
           Z            0.00000   1.00000  -0.00000
 This molecule is an asymmetric top.
 Rotational symmetry number  1.
 Warning -- assumption of classical behavior for rotation
           may cause significant error
 Rotational temperatures (Kelvin)      0.16170     0.15907     0.14947
 Rotational constants (GHZ):           3.36931     3.31439     3.11453
 Zero-point vibrational energy     325775.7 (Joules/Mol)
                                   77.86226 (Kcal/Mol)
 Warning -- explicit consideration of  10 degrees of freedom as
           vibrations may cause significant error
 Vibrational temperatures:    184.69   213.22   236.09   247.74   282.42
          (Kelvin)            311.24   342.54   403.53   412.90   864.69
                              980.77   982.76   998.03  1064.50  1097.98
                             1136.74  1177.32  1242.41  1272.18  1330.91
                             1856.97  1859.21  1868.99  2088.32  2094.60
                             2096.35  2105.31  2108.29  2119.22  4347.17
                             4349.69  4359.80  4440.05  4444.24  4454.67
                             4454.95  4460.04  4464.96  5608.16

 Zero-point correction=                           0.124081 (Hartree/Particle)
 Thermal correction to Energy=                    0.133048
 Thermal correction to Enthalpy=                  0.133993
 Thermal correction to Gibbs Free Energy=         0.091924
 Sum of electronic and zero-point Energies=           -485.150430
 Sum of electronic and thermal Energies=              -485.141463
 Sum of electronic and thermal Enthalpies=            -485.140518
 Sum of electronic and thermal Free Energies=         -485.182587

                     E (Thermal)             CV                S
                      KCal/Mol        Cal/Mol-Kelvin    Cal/Mol-Kelvin
 Total                   83.489             31.270             88.540
 Electronic               0.000              0.000              0.000
 Translational            0.889              2.981             39.406
 Rotational               0.889              2.981             26.627
 Vibrational             81.712             25.308             22.507
 Vibration     1          0.611              1.925              2.970
 Vibration     2          0.618              1.905              2.695
 Vibration     3          0.623              1.887              2.502
 Vibration     4          0.626              1.877              2.411
 Vibration     5          0.636              1.845              2.168
 Vibration     6          0.645              1.816              1.990
 Vibration     7          0.656              1.782              1.817
 Vibration     8          0.680              1.710              1.531
 Vibration     9          0.684              1.698              1.492
 Vibration    10          0.959              1.030              0.448

 Optimization completed.
    -- Stationary point found.
 Normal termination of Gaussian 16 at Wed Sep 27 10:47:51 2023.
 Gaussian 16:  ES64L-G16RevB.01 20-Dec-2017

 ---------------------------------
 # rohf/gen geom=check guess=check
 ---------------------------------

 ----------------------------------
 trimethylsilanol, ROHF/cc-pVTZ-F12
 ----------------------------------
 Structure from the checkpoint file:  "Me3SiOH.chk"
 Charge =  0 Multiplicity = 1

                         Standard orientation:
 ---------------------------------------------------------------------
 Center     Atomic      Atomic             Coordinates (Angstroms)
 Number     Number       Type             X           Y           Z
 ---------------------------------------------------------------------
      1         14           0        0.007479    0.031626    0.000000
      2          8           0        0.594109    1.590023    0.000000
      3          6           0       -1.851781    0.222437   -0.000000
      4          6           0        0.594109   -0.881072    1.533515
      5          6           0        0.594109   -0.881072   -1.533515
      6          1           0       -2.350363   -0.748794   -0.000000
      7          1           0       -2.187204    0.771497    0.881322
      8          1           0       -2.187204    0.771497   -0.881322
      9          1           0        0.189257   -1.894856    1.570858
     10          1           0        1.683125   -0.964796    1.557541
     11          1           0        0.281103   -0.363446    2.442038
     12          1           0        0.189257   -1.894856   -1.570858
     13          1           0        1.683125   -0.964796   -1.557541
     14          1           0        0.281103   -0.363446   -2.442038
     15          1           0        1.541592    1.727284    0.000000
 ---------------------------------------------------------------------

 SCF Done:  E(ROHF) =  -483.419964666     A.U. after    9 cycles

 The electronic state is 1-A'.
 Alpha  occ. eigenvalues --  -68.76545 -20.54015 -11.19497 -11.19496 -11.19124
 Alpha  occ. eigenvalues --   -6.10953  -4.21688  -4.21627  -4.21611  -1.32434
 Alpha  occ. eigenvalues --   -0.96289  -0.92421  -0.92296  -0.71596  -0.60070
 Alpha  occ. eigenvalues --   -0.57059  -0.56590  -0.55788  -0.54712  -0.53633
 Alpha  occ. eigenvalues --   -0.52951  -0.50935  -0.50745  -0.42684  -0.41881
 Alpha virt. eigenvalues --    0.03239   0.03933   0.04251   0.04445   0.08120
 Alpha virt. eigenvalues --    0.08476   0.09133   0.09147   0.09362   0.11526
 Alpha virt. eigenvalues --    0.12035   0.12113   0.12137   0.15090   0.15134

 Mulliken charges and spin densities:
               1          2
     1  Si   1.551384   0.000000
     2  O   -0.977356   0.000000
     3  C   -0.543187   0.000000
     4  C   -0.542606   0.000000
     5  C   -0.542606   0.000000
     6  H    0.073357   0.000000
     7  H    0.082381   0.000000
     8  H    0.082381   0.000000
     9  H    0.079386   0.000000
    10  H    0.060313   0.000000
    11  H    0.078180   0.000000
    12  H    0.079386   0.000000
    13  H    0.060313   0.000000
    14  H    0.078180   0.000000
    15  H    0.380497   0.000000
 Sum of Mulliken charges =  -0.00000   0.00000

 Dipole moment (field-independent basis, Debye):
    X=              0.9748    Y=             -0.9983    Z=              0.0000  Tot=              1.3953
 Quadrupole moment (field-independent basis, Debye-Ang):
   XX=            -37.2337   YY=            -42.9729   ZZ=            -41.1675
   XY=              2.3014   XZ=              0.0000   YZ=             -0.0000

 Normal termination of Gaussian 16 at Wed Sep 27 10:51:02 2023.
