 Gaussian 16, Revision B.01,
 Gaussian 16:  ES64L-G16RevB.01 20-Dec-2017

 --------------------
 # b3lyp/gen opt freq
 --------------------

 -------------------------------
 trimethylsiloxyl, B3LYP/pcseg-2
 -------------------------------
 Symbolic Z-matrix:
 Charge =  0 Multiplicity = 2

 SCF Done:  E(UB3LYP) =  -484.581468542     A.U. after   16 cycles
 SCF Done:  E(UB3LYP) =  -484.581561364     A.U. after    9 cycles
 SCF Done:  E(UB3LYP) =  -484.581566630     A.U. after   10 cycles
 SCF Done:  E(UB3LYP) =  -484.581569076     A.U. after   10 cycles
 SCF Done:  E(UB3LYP) =  -484.581569379     A.U. after    9 cycles
 Optimization completed.
    -- Stationary point found.
 Normal termination of Gaussian 16 at Thu Jun 16 14:41:03 2022.

 ------------------------------------------------------------------
 #N Geom=AllCheck Guess=TCheck SCRF=Check GenChk UB3LYP/ChkBas Freq
 ------------------------------------------------------------------

 Structure from the checkpoint file:  "/wrk/irikura/Gau-13869.chk"
 -------------------------------
 trimethylsiloxyl, B3LYP/pcseg-2
 -------------------------------
 Charge =  0 Multiplicity = 2

                         Standard orientation:
 ---------------------------------------------------------------------
 Center     Atomic      Atomic             Coordinates (Angstroms)
 Number     Number       Type             X           Y           Z
 ---------------------------------------------------------------------
      1         14           0       -0.062302    0.047865   -0.000000
      2          8           0       -0.609014    1.618577   -0.000000
      3          6           0        1.809452    0.336135    0.000000
      4          6           0       -0.609014   -0.867481    1.542972
      5          6           0       -0.609014   -0.867481   -1.542972
      6          1           0        2.298772   -0.641010    0.000000
      7          1           0        2.123681    0.885170   -0.885926
      8          1           0        2.123681    0.885170    0.885926
      9          1           0       -0.204652   -1.881917    1.559425
     10          1           0       -0.273823   -0.351080    2.443021
     11          1           0       -1.696696   -0.944555    1.585990
     12          1           0       -0.204652   -1.881917   -1.559425
     13          1           0       -0.273823   -0.351080   -2.443021
     14          1           0       -1.696696   -0.944555   -1.585990
 ---------------------------------------------------------------------

 SCF Done:  E(UB3LYP) =  -484.581569379     A.U. after    1 cycles

 The electronic state is 2-A'.
 Alpha  occ. eigenvalues --  -66.09042 -19.15288 -10.16805 -10.15633 -10.15633
 Alpha  occ. eigenvalues --   -5.27211  -3.63116  -3.62916  -3.62865  -0.96956
 Alpha  occ. eigenvalues --   -0.72542  -0.69715  -0.69172  -0.47625  -0.43410
 Alpha  occ. eigenvalues --   -0.42818  -0.42792  -0.41679  -0.40711  -0.39715
 Alpha  occ. eigenvalues --   -0.38866  -0.36245  -0.34997  -0.31115  -0.29698
 Alpha virt. eigenvalues --    0.00072   0.03733   0.04046   0.05074   0.05897
 Alpha virt. eigenvalues --    0.06703   0.06807   0.09342   0.09794   0.11245
 Alpha virt. eigenvalues --    0.11393   0.12543   0.13678   0.14172   0.14321

  Beta  occ. eigenvalues --  -66.09067 -19.12988 -10.16601 -10.15605 -10.15605
  Beta  occ. eigenvalues --   -5.27237  -3.63149  -3.62952  -3.62889  -0.90739
  Beta  occ. eigenvalues --   -0.72139  -0.69377  -0.69110  -0.46747  -0.42929
  Beta  occ. eigenvalues --   -0.42659  -0.42130  -0.40989  -0.40632  -0.39682
  Beta  occ. eigenvalues --   -0.34595  -0.33917  -0.32410  -0.28480
  Beta virt. eigenvalues --   -0.17057   0.00119   0.04007   0.04076   0.05117
  Beta virt. eigenvalues --    0.06156   0.06741   0.06870   0.09419   0.09803
  Beta virt. eigenvalues --    0.11263   0.11527   0.13059   0.13700   0.14363

 Mulliken charges and spin densities:
               1          2
     1  Si   0.889572  -0.034572
     2  O   -0.433011   0.887561
     3  C   -0.292118   0.099559
     4  C   -0.294772   0.017143
     5  C   -0.294772   0.017143
     6  H    0.036766   0.016308
     7  H    0.059743  -0.002544
     8  H    0.059743  -0.002544
     9  H    0.035211   0.001109
    10  H    0.051422  -0.000466
    11  H    0.047791   0.000330
    12  H    0.035211   0.001109
    13  H    0.051422  -0.000466
    14  H    0.047791   0.000330
 Sum of Mulliken charges =   0.00000   1.00000

 Dipole moment (field-independent basis, Debye):
    X=              0.9556    Y=             -2.2693    Z=             -0.0000  Tot=              2.4623
 Quadrupole moment (field-independent basis, Debye-Ang):
   XX=            -38.4258   YY=            -44.0221   ZZ=            -39.4770
   XY=              1.8539   XZ=             -0.0000   YZ=              0.0000

  Exact polarizability:  69.899  -1.267  64.735   0.000  -0.000  72.783
 Approx polarizability:  95.118  -8.557  94.067   0.000  -0.000  86.827

                      1                      2                      3
                     A"                     A"                     A'
 Frequencies --    116.4728               134.8335               148.8005
 Red. masses --      1.0123                 1.0956                 1.0358
 Frc consts  --      0.0081                 0.0117                 0.0135
 IR Inten    --      0.0166                 0.0105                 0.0599

                      4                      5                      6
                     A"                     A'                     A'
 Frequencies --    173.1502               189.5401               230.3236
 Red. masses --      2.5399                 2.8845                 2.5400
 Frc consts  --      0.0449                 0.0611                 0.0794
 IR Inten    --      0.1396                 1.3590                 0.8499

                      7                      8                      9
                     A'                     A"                     A'
 Frequencies --    243.3058               250.7148               589.0510
 Red. masses --      3.6206                 3.5557                 3.8636
 Frc consts  --      0.1263                 0.1317                 0.7899
 IR Inten    --     14.8915                 6.3040                 0.0017

                     10                     11                     12
                     A'                     A"                     A"
 Frequencies --    668.1851               678.4656               695.1540
 Red. masses --      4.9016                 1.5180                 1.1985
 Frc consts  --      1.2894                 0.4117                 0.3412
 IR Inten    --     12.6938                10.0527                 1.4005

                     13                     14                     15
                     A'                     A"                     A'
 Frequencies --    696.9083               720.2538               787.3139
 Red. masses --      1.3706                 2.0018                 2.1389
 Frc consts  --      0.3922                 0.6119                 0.7811
 IR Inten    --      1.3404                10.1577                16.3400

                     16                     17                     18
                     A'                     A"                     A'
 Frequencies --    850.9219               854.9920               901.8886
 Red. masses --      1.4604                 1.5692                 2.3157
 Frc consts  --      0.6230                 0.6758                 1.1098
 IR Inten    --     39.8384                75.2765               103.6881

                     19                     20                     21
                     A'                     A"                     A'
 Frequencies --   1252.3999              1274.3246              1290.4878
 Red. masses --      1.2206                 1.2437                 1.2256
 Frc consts  --      1.1280                 1.1900                 1.2026
 IR Inten    --     13.0150                 7.5091                12.7143

                     22                     23                     24
                     A"                     A"                     A"
 Frequencies --   1438.2452              1451.1776              1457.2888
 Red. masses --      1.0564                 1.0544                 1.0517
 Frc consts  --      1.2875                 1.3083                 1.3159
 IR Inten    --      0.1644                 0.0994                 3.8730

                     25                     26                     27
                     A'                     A'                     A'
 Frequencies --   1457.5111              1460.7048              1473.2365
 Red. masses --      1.0542                 1.0490                 1.0478
 Frc consts  --      1.3194                 1.3187                 1.3399
 IR Inten    --      0.9503                 7.7700                10.7765

                     28                     29                     30
                     A"                     A'                     A'
 Frequencies --   3027.0606              3029.8706              3031.3185
 Red. masses --      1.0349                 1.0352                 1.0359
 Frc consts  --      5.5872                 5.5991                 5.6086
 IR Inten    --      9.5666                 3.5559                 6.3722

                     31                     32                     33
                     A"                     A'                     A'
 Frequencies --   3095.5699              3098.1936              3108.5443
 Red. masses --      1.0991                 1.0991                 1.0994
 Frc consts  --      6.2052                 6.2161                 6.2590
 IR Inten    --      1.2669                15.3234                 2.3610

                     34                     35                     36
                     A"                     A'                     A"
 Frequencies --   3108.9523              3110.6845              3135.1920
 Red. masses --      1.1005                 1.0967                 1.1024
 Frc consts  --      6.2669                 6.2523                 6.3845
 IR Inten    --      7.0379                15.0593                 6.3631

 - Thermochemistry -
 -------------------
 Temperature   298.150 Kelvin.  Pressure   1.00000 Atm.
 Atom     1 has atomic number 14 and mass  27.97693

 Molecular mass:    89.04227 amu.
 Principal axes and moments of inertia in atomic units:
                           1         2         3
     Eigenvalues --   511.89807 524.57248 589.20259
           X            0.74483   0.00000  -0.66725
           Y            0.66725   0.00000   0.74483
           Z           -0.00000   1.00000   0.00000
 This molecule is an asymmetric top.
 Rotational symmetry number  1.
 Warning -- assumption of classical behavior for rotation
           may cause significant error
 Rotational temperatures (Kelvin)      0.16920     0.16511     0.14700
 Rotational constants (GHZ):           3.52559     3.44040     3.06302
 Zero-point vibrational energy     294467.0 (Joules/Mol)
                                   70.37930 (Kcal/Mol)
 Warning -- explicit consideration of   9 degrees of freedom as
           vibrations may cause significant error
 Vibrational temperatures:    167.58   194.00   214.09   249.12   272.71
          (Kelvin)            331.38   350.06   360.72   847.51   961.37
                              976.16  1000.17  1002.70  1036.28  1132.77
                             1224.29  1230.14  1297.62  1801.92  1833.47
                             1856.72  2069.31  2087.92  2096.71  2097.03
                             2101.63  2119.66  4355.27  4359.31  4361.39
                             4453.83  4457.61  4472.50  4473.09  4475.58
                             4510.84

 Zero-point correction=                           0.112157 (Hartree/Particle)
 Thermal correction to Energy=                    0.120770
 Thermal correction to Enthalpy=                  0.121715
 Thermal correction to Gibbs Free Energy=         0.079443
 Sum of electronic and zero-point Energies=           -484.469413
 Sum of electronic and thermal Energies=              -484.460799
 Sum of electronic and thermal Enthalpies=            -484.459855
 Sum of electronic and thermal Free Energies=         -484.502127

                     E (Thermal)             CV                S
                      KCal/Mol        Cal/Mol-Kelvin    Cal/Mol-Kelvin
 Total                   75.785             29.378             88.969
 Electronic               0.000              0.000              1.377
 Translational            0.889              2.981             39.372
 Rotational               0.889              2.981             26.562
 Vibrational             74.007             23.416             21.658
 Vibration     1          0.608              1.936              3.158
 Vibration     2          0.613              1.919              2.876
 Vibration     3          0.618              1.904              2.688
 Vibration     4          0.627              1.876              2.401
 Vibration     5          0.633              1.854              2.232
 Vibration     6          0.652              1.795              1.876
 Vibration     7          0.659              1.774              1.779
 Vibration     8          0.663              1.762              1.726
 Vibration     9          0.946              1.055              0.469

                           ! Non-Optimized Parameters !
 Normal termination of Gaussian 16 at Thu Jun 16 14:45:41 2022.
