 Gaussian 16, Revision B.01,

 ---------------------------------------
 # b3lyp/gen opt freq CPHF(Grid=OneStep)
 ---------------------------------------

 -----------------------------
 trimethylsilyl, B3LYP/pcseg-2
 -----------------------------
 Symbolic Z-matrix:
 Charge =  0 Multiplicity = 2

 SCF Done:  E(UB3LYP) =  -409.302357200     A.U. after   12 cycles
 Optimization completed.
    -- Stationary point found.
 Normal termination of Gaussian 16 at Sat Sep 30 08:43:42 2023.

 ------------------------------------------------------------------
 #N Geom=AllCheck Guess=TCheck SCRF=Check GenChk UB3LYP/ChkBas Freq
 ------------------------------------------------------------------

 Structure from the checkpoint file:  "me3si.chk"
 -----------------------------
 trimethylsilyl, B3LYP/pcseg-2
 -----------------------------
 Charge =  0 Multiplicity = 2

 SCF Done:  E(UB3LYP) =  -409.302357200     A.U. after    1 cycles

  Exact polarizability:  72.627  -0.000  72.627   0.000  -0.000  59.320
 Approx polarizability:  92.602  -0.000  92.602   0.000   0.000  83.645

                      1                      2                      3
                     A2                      E                      E
 Frequencies --    126.4922               144.2349               144.2349
 Red. masses --      1.0121                 1.0390                 1.0390
 Frc consts  --      0.0095                 0.0127                 0.0127
 IR Inten    --      0.0000                 0.0018                 0.0018

                      4                      5                      6
                      E                      E                     A1
 Frequencies --    200.6155               200.6156               227.8157
 Red. masses --      2.3678                 2.3678                 2.5285
 Frc consts  --      0.0561                 0.0561                 0.0773
 IR Inten    --      1.0411                 1.0411                 0.9169

                      7                      8                      9
                     A1                      E                      E
 Frequencies --    591.9364               679.9853               679.9855
 Red. masses --      3.8818                 1.7514                 1.7513
 Frc consts  --      0.8014                 0.4771                 0.4771
 IR Inten    --      1.5708                16.1239                16.1234

                     10                     11                     12
                     A2                      E                      E
 Frequencies --    692.1302               716.9171               716.9172
 Red. masses --      1.1631                 1.7832                 1.7832
 Frc consts  --      0.3283                 0.5400                 0.5400
 IR Inten    --      0.0000                11.6121                11.6125

                     13                     14                     15
                      E                      E                     A1
 Frequencies --    863.0379               863.0380               866.5062
 Red. masses --      1.5188                 1.5188                 1.4907
 Frc consts  --      0.6665                 0.6665                 0.6595
 IR Inten    --     62.7957                62.7958                53.3562

                     16                     17                     18
                      E                      E                     A1
 Frequencies --   1274.9278              1274.9278              1286.4546
 Red. masses --      1.2330                 1.2330                 1.2053
 Frc consts  --      1.1809                 1.1809                 1.1752
 IR Inten    --     18.3474                18.3472                 3.1103

                     19                     20                     21
                     A2                      E                      E
 Frequencies --   1445.0746              1453.5185              1453.5185
 Red. masses --      1.0555                 1.0541                 1.0541
 Frc consts  --      1.2987                 1.3122                 1.3122
 IR Inten    --      0.0000                 0.3112                 0.3112

                     22                     23                     24
                      E                      E                     A1
 Frequencies --   1457.7366              1457.7366              1470.4151
 Red. masses --      1.0511                 1.0511                 1.0474
 Frc consts  --      1.3160                 1.3160                 1.3343
 IR Inten    --     10.9132                10.9131                 7.7227

                     25                     26                     27
                      E                      E                     A1
 Frequencies --   3007.2874              3007.2874              3008.7995
 Red. masses --      1.0415                 1.0415                 1.0411
 Frc consts  --      5.5498                 5.5498                 5.5532
 IR Inten    --     12.2808                12.2808                20.7062

                     28                     29                     30
                      E                      E                     A1
 Frequencies --   3079.8071              3079.8071              3080.7534
 Red. masses --      1.0913                 1.0913                 1.0908
 Frc consts  --      6.0988                 6.0988                 6.0995
 IR Inten    --      3.0349                 3.0349                25.3354

                     31                     32                     33
                     A2                      E                      E
 Frequencies --   3105.9692              3106.3909              3106.3909
 Red. masses --      1.1006                 1.1005                 1.1005
 Frc consts  --      6.2560                 6.2570                 6.2570
 IR Inten    --      0.0000                13.7067                13.7070

 - Thermochemistry -
 -------------------
 Temperature   298.150 Kelvin.  Pressure   1.00000 Atm.
 Atom     1 has atomic number 14 and mass  27.97693

 Molecular mass:    73.04735 amu.
 Principal axes and moments of inertia in atomic units:
                           1         2         3
     Eigenvalues --   330.86950 330.86950 583.11747
           X            0.82388   0.56677   0.00000
           Y           -0.56677   0.82388   0.00000
           Z           -0.00000  -0.00000   1.00000
 This molecule is an oblate symmetric top.
 Rotational symmetry number  3.
 Rotational temperatures (Kelvin)      0.26178     0.26178     0.14854
 Rotational constants (GHZ):           5.45454     5.45454     3.09499
 Zero-point vibrational energy     286333.8 (Joules/Mol)
                                   68.43541 (Kcal/Mol)
 Warning -- explicit consideration of   7 degrees of freedom as
           vibrations may cause significant error
 Vibrational temperatures:    181.99   207.52   207.52   288.64   288.64
          (Kelvin)            327.78   851.66   978.35   978.35   995.82
                             1031.48  1031.48  1241.72  1241.72  1246.71
                             1834.34  1834.34  1850.92  2079.14  2091.29
                             2091.29  2097.36  2097.36  2115.60  4326.82
                             4326.82  4328.99  4431.16  4431.16  4432.52
                             4468.80  4469.40  4469.40

 Zero-point correction=                           0.109059 (Hartree/Particle)
 Thermal correction to Energy=                    0.116513
 Thermal correction to Enthalpy=                  0.117457
 Thermal correction to Gibbs Free Energy=         0.078995
 Sum of electronic and zero-point Energies=           -409.193298
 Sum of electronic and thermal Energies=              -409.185844
 Sum of electronic and thermal Enthalpies=            -409.184900
 Sum of electronic and thermal Free Energies=         -409.223362

                     E (Thermal)             CV                S
                      KCal/Mol        Cal/Mol-Kelvin    Cal/Mol-Kelvin
 Total                   73.113             25.060             80.951
 Electronic               0.000              0.000              1.377
 Translational            0.889              2.981             38.782
 Rotational               0.889              2.981             23.477
 Vibrational             71.335             19.098             17.315
 Vibration     1          0.611              1.927              2.999
 Vibration     2          0.616              1.909              2.747
 Vibration     3          0.616              1.909              2.747
 Vibration     4          0.638              1.839              2.127
 Vibration     5          0.638              1.839              2.127
 Vibration     6          0.651              1.799              1.896
 Vibration     7          0.949              1.049              0.464

 Optimization completed.
    -- Stationary point found.
 Normal termination of Gaussian 16 at Sat Sep 30 08:53:38 2023.
 Gaussian 16:  ES64L-G16RevB.01 20-Dec-2017

 ---------------------------------
 # rohf/gen geom=check guess=check
 ---------------------------------

 --------------------------------
 trimethylsilyl, ROHF/cc-pVTZ-F12
 --------------------------------
 Structure from the checkpoint file:  "me3si.chk"
 Charge =  0 Multiplicity = 2

                         Standard orientation:
 ---------------------------------------------------------------------
 Center     Atomic      Atomic             Coordinates (Angstroms)
 Number     Number       Type             X           Y           Z
 ---------------------------------------------------------------------
      1         14           0        0.000000    0.000000    0.420162
      2          6           0        0.000000    1.792279   -0.175098
      3          6           0        1.552159   -0.896140   -0.175098
      4          6           0       -1.552159   -0.896140   -0.175098
      5          1           0        0.000000    1.835274   -1.269192
      6          1           0        0.881417    2.327802    0.179512
      7          1           0       -0.881417    2.327802    0.179512
      8          1           0        1.589394   -0.917637   -1.269192
      9          1           0        1.575227   -1.927231    0.179512
     10          1           0        2.456644   -0.400572    0.179512
     11          1           0       -1.589394   -0.917637   -1.269192
     12          1           0       -2.456644   -0.400572    0.179512
     13          1           0       -1.575227   -1.927231    0.179512
 ---------------------------------------------------------------------

 SCF Done:  E(ROHF) =  -407.833363203     A.U. after   13 cycles

 The electronic state is 2-A1.
 Alpha  occ. eigenvalues --  -68.75568 -11.19952 -11.19952 -11.19951  -6.10192
 Alpha  occ. eigenvalues --   -4.20812  -4.20812  -4.20614  -0.96130  -0.92303
 Alpha  occ. eigenvalues --   -0.92303  -0.60487  -0.56287  -0.56088  -0.56088
 Alpha  occ. eigenvalues --   -0.54067  -0.54067  -0.53221  -0.42891  -0.42891
 Alpha  occ. eigenvalues --   -0.06437
 Alpha virt. eigenvalues --    0.03820   0.04155   0.04155   0.04823   0.08516
 Alpha virt. eigenvalues --    0.08516   0.09291   0.09291   0.09844   0.11480
 Alpha virt. eigenvalues --    0.12052   0.12052   0.12542   0.14685   0.14685

 Mulliken charges and spin densities:
               1          2
     1  Si   0.861856   0.966890
     2  C   -0.506441   0.004504
     3  C   -0.506441   0.004504
     4  C   -0.506441   0.004504
     5  H    0.076114   0.008796
     6  H    0.071520  -0.001132
     7  H    0.071520  -0.001132
     8  H    0.076114   0.008796
     9  H    0.071520  -0.001132
    10  H    0.071520  -0.001132
    11  H    0.076114   0.008796
    12  H    0.071520  -0.001132
    13  H    0.071520  -0.001132
 Sum of Mulliken charges =  -0.00000   1.00000

 Dipole moment (field-independent basis, Debye):
    X=              0.0000    Y=             -0.0000    Z=             -0.6301  Tot=              0.6301
 Quadrupole moment (field-independent basis, Debye-Ang):
   XX=            -35.3554   YY=            -35.3554   ZZ=            -36.6461
   XY=             -0.0000   XZ=             -0.0000   YZ=             -0.0000

 Normal termination of Gaussian 16 at Sat Sep 30 08:54:37 2023.
