 Gaussian 16, Revision B.01,
 Gaussian 16:  ES64L-G16RevB.01 20-Dec-2017

 --------------------
 # b3lyp/gen opt freq
 --------------------

 -----------------------------
 1,3-pentadiyne, B3LYP/pcseg-2
 -----------------------------
 Symbolic Z-matrix:
 Charge =  0 Multiplicity = 1

 SCF Done:  E(RB3LYP) =  -192.892099450     A.U. after   14 cycles
 SCF Done:  E(RB3LYP) =  -192.892162061     A.U. after    9 cycles
 SCF Done:  E(RB3LYP) =  -192.892162824     A.U. after    7 cycles
 Optimization completed.
    -- Stationary point found.
 Normal termination of Gaussian 16 at Thu Jun 16 17:19:15 2022.

 ------------------------------------------------------------------
 #N Geom=AllCheck Guess=TCheck SCRF=Check GenChk RB3LYP/ChkBas Freq
 ------------------------------------------------------------------

 Structure from the checkpoint file:  "/wrk/irikura/Gau-15631.chk"
 -----------------------------
 1,3-pentadiyne, B3LYP/pcseg-2
 -----------------------------
 Charge =  0 Multiplicity = 1

                         Standard orientation:
 ---------------------------------------------------------------------
 Center     Atomic      Atomic             Coordinates (Angstroms)
 Number     Number       Type             X           Y           Z
 ---------------------------------------------------------------------
      1          6           0        0.000000    0.000000    2.718814
      2          6           0        0.000000    0.000000    1.513447
      3          6           0        0.000000    0.000000    0.150166
      4          6           0        0.000000   -0.000000   -1.056703
      5          6           0        0.000000   -0.000000   -2.506792
      6          1           0        0.000000    0.000000    3.779818
      7          1           0        0.000000    1.019074   -2.897803
      8          1           0        0.882544   -0.509537   -2.897803
      9          1           0       -0.882544   -0.509537   -2.897803
 ---------------------------------------------------------------------

 SCF Done:  E(RB3LYP) =  -192.892162824     A.U. after    1 cycles

 The electronic state is 1-A1.
 Alpha  occ. eigenvalues --  -10.20507 -10.19491 -10.19428 -10.18691 -10.18292
 Alpha  occ. eigenvalues --   -0.81053  -0.77444  -0.71844  -0.61499  -0.52429
 Alpha  occ. eigenvalues --   -0.47847  -0.44817  -0.44817  -0.34999  -0.34999
 Alpha  occ. eigenvalues --   -0.25605  -0.25605
 Alpha virt. eigenvalues --   -0.02494  -0.02494   0.00994   0.04050   0.06908
 Alpha virt. eigenvalues --    0.06908   0.08113   0.10585   0.13247   0.13247
 Alpha virt. eigenvalues --    0.15214   0.16351   0.16351   0.19007   0.19007

 Mulliken charges:
               1
     1  C   -0.176404
     2  C    0.094040
     3  C   -0.106688
     4  C    0.062886
     5  C   -0.097668
     6  H    0.050461
     7  H    0.057791
     8  H    0.057791
     9  H    0.057791
 Sum of Mulliken charges =  -0.00000

 Dipole moment (field-independent basis, Debye):
    X=              0.0000    Y=              0.0000    Z=             -1.3517  Tot=              1.3517
 Quadrupole moment (field-independent basis, Debye-Ang):
   XX=            -30.8351   YY=            -30.8351   ZZ=            -18.0426
   XY=             -0.0000   XZ=             -0.0000   YZ=             -0.0000

  Exact polarizability:  33.447   0.000  33.447   0.000   0.000 117.401
 Approx polarizability:  45.177  -0.000  45.177   0.000  -0.000 211.130

                      1                      2                      3
                      E                      E                      E
 Frequencies --    146.6645               146.6648               342.1999
 Red. masses --      3.6120                 3.6120                 4.1851
 Frc consts  --      0.0458                 0.0458                 0.2887
 IR Inten    --      7.3891                 7.3891                 0.2326

                      4                      5                      6
                      E                      E                      E
 Frequencies --    342.1999               531.5278               531.5278
 Red. masses --      4.1851                 8.8515                 8.8515
 Frc consts  --      0.2887                 1.4734                 1.4734
 IR Inten    --      0.2326                 0.7800                 0.7800

                      7                      8                      9
                      E                      E                     A1
 Frequencies --    648.7948               648.7948               680.9538
 Red. masses --      1.2590                 1.2590                 4.8415
 Frc consts  --      0.3122                 0.3122                 1.3227
 IR Inten    --     52.2843                52.2843                 0.1229

                     10                     11                     12
                      E                      E                     A1
 Frequencies --   1049.4498              1049.4499              1181.6133
 Red. masses --      1.4050                 1.4050                 5.8169
 Frc consts  --      0.9117                 0.9117                 4.7851
 IR Inten    --      1.2956                 1.2956                 1.7439

                     13                     14                     15
                     A1                      E                      E
 Frequencies --   1415.6944              1471.9512              1471.9513
 Red. masses --      1.2545                 1.0385                 1.0385
 Frc consts  --      1.4814                 1.3257                 1.3257
 IR Inten    --      2.9961                 8.4980                 8.4983

                     16                     17                     18
                     A1                     A1                     A1
 Frequencies --   2164.4924              2342.2770              3025.7125
 Red. masses --      6.6329                10.8707                 1.0340
 Frc consts  --     18.3091                35.1385                 5.5771
 IR Inten    --      6.6679                35.4380                20.8980

                     19                     20                     21
                      E                      E                     A1
 Frequencies --   3083.6031              3083.6033              3473.7193
 Red. masses --      1.1008                 1.1008                 1.1530
 Frc consts  --      6.1667                 6.1668                 8.1971
 IR Inten    --      5.0802                 5.0801               109.0947

 - Thermochemistry -
 -------------------
 Temperature   298.150 Kelvin.  Pressure   1.00000 Atm.
 Atom     1 has atomic number  6 and mass  12.00000

 Molecular mass:    64.03130 amu.
 Principal axes and moments of inertia in atomic units:
                           1         2         3
     Eigenvalues --    11.21283 879.39017 879.39017
           X            0.00000   0.58023   0.81445
           Y            0.00000   0.81445  -0.58023
           Z            1.00000  -0.00000  -0.00000
 This molecule is a prolate symmetric top.
 Rotational symmetry number  3.
 Rotational temperatures (Kelvin)      7.72454     0.09849     0.09849
 Rotational constants (GHZ):         160.95326     2.05226     2.05226
 Zero-point vibrational energy     172458.7 (Joules/Mol)
                                   41.21862 (Kcal/Mol)
 Warning -- explicit consideration of   6 degrees of freedom as
           vibrations may cause significant error
 Vibrational temperatures:    211.02   211.02   492.35   492.35   764.75
          (Kelvin)            764.75   933.47   933.47   979.74  1509.92
                             1509.92  1700.08  2036.87  2117.81  2117.81
                             3114.22  3370.01  4353.33  4436.62  4436.62
                             4997.91

 Zero-point correction=                           0.065686 (Hartree/Particle)
 Thermal correction to Energy=                    0.071448
 Thermal correction to Enthalpy=                  0.072393
 Thermal correction to Gibbs Free Energy=         0.039038
 Sum of electronic and zero-point Energies=           -192.826477
 Sum of electronic and thermal Energies=              -192.820714
 Sum of electronic and thermal Enthalpies=            -192.819770
 Sum of electronic and thermal Free Energies=         -192.853125

                     E (Thermal)             CV                S
                      KCal/Mol        Cal/Mol-Kelvin    Cal/Mol-Kelvin
 Total                   44.835             19.189             70.201
 Electronic               0.000              0.000              0.000
 Translational            0.889              2.981             38.389
 Rotational               0.889              2.981             21.493
 Vibrational             43.057             13.227             10.319
 Vibration     1          0.617              1.906              2.715
 Vibration     2          0.617              1.906              2.715
 Vibration     3          0.721              1.591              1.202
 Vibration     4          0.721              1.591              1.202
 Vibration     5          0.886              1.180              0.584
 Vibration     6          0.886              1.180              0.584

 Optimization completed.
    -- Stationary point found.
 Normal termination of Gaussian 16 at Thu Jun 16 17:20:06 2022.
