 Gaussian 16, Revision B.01,

 ---------------------------------------
 # b3lyp/gen opt freq CPHF(Grid=OneStep)
 ---------------------------------------

 -----------------------------
 1,3-pentadiyne, B3LYP/pcseg-2
 -----------------------------
 Symbolic Z-matrix:
 Charge =  0 Multiplicity = 1

 SCF Done:  E(RB3LYP) =  -192.892162825     A.U. after   13 cycles
 Optimization completed.
    -- Stationary point found.
 Normal termination of Gaussian 16 at Fri Sep 29 09:21:48 2023.

 ------------------------------------------------------------------
 #N Geom=AllCheck Guess=TCheck SCRF=Check GenChk RB3LYP/ChkBas Freq
 ------------------------------------------------------------------

 Structure from the checkpoint file:  "mec4h.chk"
 -----------------------------
 1,3-pentadiyne, B3LYP/pcseg-2
 -----------------------------
 Charge =  0 Multiplicity = 1

 SCF Done:  E(RB3LYP) =  -192.892162825     A.U. after    1 cycles

  Exact polarizability:  33.447   0.000  33.447   0.000  -0.000 117.401
 Approx polarizability:  45.177  -0.000  45.177   0.000  -0.000 211.130

                      1                      2                      3
                      E                      E                      E
 Frequencies --    146.6642               146.6644               342.2003
 Red. masses --      3.6120                 3.6120                 4.1851
 Frc consts  --      0.0458                 0.0458                 0.2887
 IR Inten    --      7.3889                 7.3889                 0.2326

                      4                      5                      6
                      E                      E                      E
 Frequencies --    342.2003               531.5270               531.5270
 Red. masses --      4.1851                 8.8516                 8.8516
 Frc consts  --      0.2887                 1.4734                 1.4734
 IR Inten    --      0.2326                 0.7800                 0.7800

                      7                      8                      9
                      E                      E                     A1
 Frequencies --    648.7944               648.7944               680.9548
 Red. masses --      1.2590                 1.2590                 4.8415
 Frc consts  --      0.3122                 0.3122                 1.3227
 IR Inten    --     52.2840                52.2840                 0.1229

                     10                     11                     12
                      E                      E                     A1
 Frequencies --   1049.4511              1049.4511              1181.6154
 Red. masses --      1.4050                 1.4050                 5.8168
 Frc consts  --      0.9117                 0.9117                 4.7851
 IR Inten    --      1.2955                 1.2955                 1.7432

                     13                     14                     15
                     A1                      E                      E
 Frequencies --   1415.6938              1471.9511              1471.9512
 Red. masses --      1.2545                 1.0385                 1.0385
 Frc consts  --      1.4814                 1.3257                 1.3257
 IR Inten    --      2.9956                 8.4984                 8.4984

                     16                     17                     18
                     A1                     A1                     A1
 Frequencies --   2164.4869              2342.2720              3025.7048
 Red. masses --      6.6330                10.8705                 1.0340
 Frc consts  --     18.3093                35.1377                 5.5771
 IR Inten    --      6.6641                35.4366                20.8943

                     19                     20                     21
                      E                      E                     A1
 Frequencies --   3083.5952              3083.5953              3473.7187
 Red. masses --      1.1008                 1.1008                 1.1530
 Frc consts  --      6.1667                 6.1667                 8.1971
 IR Inten    --      5.0803                 5.0803               109.0905

 - Thermochemistry -
 -------------------
 Temperature   298.150 Kelvin.  Pressure   1.00000 Atm.
 Atom     1 has atomic number  6 and mass  12.00000

 Molecular mass:    64.03130 amu.
 Principal axes and moments of inertia in atomic units:
                           1         2         3
     Eigenvalues --    11.21284 879.39005 879.39005
           X            0.00000   1.00000   0.00000
           Y            0.00000   0.00000   1.00000
           Z            1.00000   0.00000   0.00000
 This molecule is a prolate symmetric top.
 Rotational symmetry number  3.
 Rotational temperatures (Kelvin)      7.72453     0.09849     0.09849
 Rotational constants (GHZ):         160.95310     2.05226     2.05226
 Zero-point vibrational energy     172458.5 (Joules/Mol)
                                   41.21858 (Kcal/Mol)
 Warning -- explicit consideration of   6 degrees of freedom as
           vibrations may cause significant error
 Vibrational temperatures:    211.02   211.02   492.35   492.35   764.75
          (Kelvin)            764.75   933.47   933.47   979.74  1509.93
                             1509.93  1700.08  2036.87  2117.81  2117.81
                             3114.21  3370.01  4353.31  4436.61  4436.61
                             4997.91

 Zero-point correction=                           0.065686 (Hartree/Particle)
 Thermal correction to Energy=                    0.071448
 Thermal correction to Enthalpy=                  0.072393
 Thermal correction to Gibbs Free Energy=         0.039038
 Sum of electronic and zero-point Energies=           -192.826477
 Sum of electronic and thermal Energies=              -192.820714
 Sum of electronic and thermal Enthalpies=            -192.819770
 Sum of electronic and thermal Free Energies=         -192.853125

                     E (Thermal)             CV                S
                      KCal/Mol        Cal/Mol-Kelvin    Cal/Mol-Kelvin
 Total                   44.835             19.189             70.201
 Electronic               0.000              0.000              0.000
 Translational            0.889              2.981             38.389
 Rotational               0.889              2.981             21.493
 Vibrational             43.057             13.227             10.319
 Vibration     1          0.617              1.906              2.715
 Vibration     2          0.617              1.906              2.715
 Vibration     3          0.721              1.591              1.202
 Vibration     4          0.721              1.591              1.202
 Vibration     5          0.886              1.180              0.584
 Vibration     6          0.886              1.180              0.584

 Optimization completed.
    -- Stationary point found.
 Normal termination of Gaussian 16 at Fri Sep 29 09:24:35 2023.
 Gaussian 16:  ES64L-G16RevB.01 20-Dec-2017

 ---------------------------------
 # rohf/gen geom=check guess=check
 ---------------------------------

 --------------------------------
 1,3-pentadiyne, ROHF/cc-pVTZ-F12
 --------------------------------
 Structure from the checkpoint file:  "mec4h.chk"
 Charge =  0 Multiplicity = 1

                         Standard orientation:
 ---------------------------------------------------------------------
 Center     Atomic      Atomic             Coordinates (Angstroms)
 Number     Number       Type             X           Y           Z
 ---------------------------------------------------------------------
      1          6           0        0.000000    0.000000    2.718814
      2          6           0        0.000000    0.000000    1.513447
      3          6           0        0.000000    0.000000    0.150166
      4          6           0        0.000000    0.000000   -1.056703
      5          6           0        0.000000    0.000000   -2.506792
      6          1           0        0.000000    0.000000    3.779818
      7          1           0        0.000000    1.019074   -2.897803
      8          1           0        0.882544   -0.509537   -2.897803
      9          1           0       -0.882544   -0.509537   -2.897803
 ---------------------------------------------------------------------

 SCF Done:  E(ROHF) =  -191.622765928     A.U. after   11 cycles

 The electronic state is 1-A1.
 Alpha  occ. eigenvalues --  -11.25848 -11.25497 -11.25451 -11.24343 -11.24317
 Alpha  occ. eigenvalues --   -1.09286  -1.04317  -0.97093  -0.82449  -0.70871
 Alpha  occ. eigenvalues --   -0.64409  -0.60268  -0.60268  -0.47626  -0.47626
 Alpha  occ. eigenvalues --   -0.35180  -0.35180
 Alpha virt. eigenvalues --    0.04094   0.05119   0.07011   0.07108   0.07108
 Alpha virt. eigenvalues --    0.08046   0.08046   0.09235   0.11262   0.11262
 Alpha virt. eigenvalues --    0.12762   0.12762   0.13447   0.16307   0.17210

 Mulliken charges and spin densities:
               1          2
     1  C   -0.562941   0.000000
     2  C    0.230907   0.000000
     3  C    0.264918   0.000000
     4  C   -0.178879   0.000000
     5  C   -0.361168   0.000000
     6  H    0.260652   0.000000
     7  H    0.115504   0.000000
     8  H    0.115504   0.000000
     9  H    0.115504   0.000000
 Sum of Mulliken charges =  -0.00000   0.00000

 Dipole moment (field-independent basis, Debye):
    X=             -0.0000    Y=              0.0000    Z=             -1.2352  Tot=              1.2352
 Quadrupole moment (field-independent basis, Debye-Ang):
   XX=            -31.2668   YY=            -31.2668   ZZ=            -16.9492
   XY=              0.0000   XZ=             -0.0000   YZ=             -0.0000

 Normal termination of Gaussian 16 at Fri Sep 29 09:26:01 2023.
