 Gaussian 16, Revision B.01,
 Gaussian 16:  ES64L-G16RevB.01 20-Dec-2017

 -------------------------
 # b3lyp/gen opt=cart freq
 -------------------------

 ----------------------------
 2,4-hexadiyne, B3LYP/pcseg-2
 ----------------------------
 Symbolic Z-matrix:
 Charge =  0 Multiplicity = 1

 SCF Done:  E(RB3LYP) =  -232.233293989     A.U. after   12 cycles
 SCF Done:  E(RB3LYP) =  -232.233403308     A.U. after    8 cycles
 SCF Done:  E(RB3LYP) =  -232.233404834     A.U. after    6 cycles
 Optimization completed.
    -- Stationary point found.
 Normal termination of Gaussian 16 at Wed Jun 15 16:15:59 2022.

 ------------------------------------------------------------------
 #N Geom=AllCheck Guess=TCheck SCRF=Check GenChk RB3LYP/ChkBas Freq
 ------------------------------------------------------------------

 Structure from the checkpoint file:  "/wrk/irikura/Gau-22894.chk"
 ----------------------------
 2,4-hexadiyne, B3LYP/pcseg-2
 ----------------------------
 Charge =  0 Multiplicity = 1

                         Standard orientation:
 ---------------------------------------------------------------------
 Center     Atomic      Atomic             Coordinates (Angstroms)
 Number     Number       Type             X           Y           Z
 ---------------------------------------------------------------------
      1          6           0        0.000000    0.000000    0.681831
      2          6           0        0.000000    0.000000   -0.681831
      3          6           0        0.000000    0.000000    1.889376
      4          6           0        0.000000    0.000000   -1.889376
      5          6           0        0.000000    0.000000    3.340393
      6          6           0        0.000000    0.000000   -3.340393
      7          1           0        0.000000    1.018581    3.733455
      8          1           0       -0.882117   -0.509291    3.733455
      9          1           0        0.882117   -0.509291    3.733455
     10          1           0        0.000000    1.018581   -3.733455
     11          1           0        0.882117   -0.509291   -3.733455
     12          1           0       -0.882117   -0.509291   -3.733455
 ---------------------------------------------------------------------

 SCF Done:  E(RB3LYP) =  -232.233404834     A.U. after    1 cycles

 The electronic state is 1-A1'.
 Alpha  occ. eigenvalues --  -10.19711 -10.19711 -10.18089 -10.18083 -10.17699
 Alpha  occ. eigenvalues --  -10.17636  -0.80384  -0.78360  -0.74062  -0.69316
 Alpha  occ. eigenvalues --   -0.59027  -0.47479  -0.46481  -0.44074  -0.44074
 Alpha  occ. eigenvalues --   -0.43825  -0.43825  -0.33348  -0.33348  -0.23941
 Alpha  occ. eigenvalues --   -0.23941
 Alpha virt. eigenvalues --   -0.01045  -0.01045   0.01290   0.01754   0.07142
 Alpha virt. eigenvalues --    0.07142   0.07960   0.07960   0.08204   0.10240
 Alpha virt. eigenvalues --    0.14229   0.15583   0.15583   0.17303   0.17303

 Mulliken charges:
               1
     1  C   -0.093610
     2  C   -0.093610
     3  C    0.030224
     4  C    0.030224
     5  C   -0.098928
     6  C   -0.098928
     7  H    0.054105
     8  H    0.054105
     9  H    0.054105
    10  H    0.054105
    11  H    0.054105
    12  H    0.054105
 Sum of Mulliken charges =  -0.00000

 Dipole moment (field-independent basis, Debye):
    X=             -0.0000    Y=             -0.0000    Z=              0.0000  Tot=              0.0000
 Quadrupole moment (field-independent basis, Debye-Ang):
   XX=            -36.9028   YY=            -36.9028   ZZ=            -20.1505
   XY=              0.0000   XZ=              0.0000   YZ=             -0.0000

  Exact polarizability:  43.794   0.000  43.795  -0.000  -0.000 148.890
 Approx polarizability:  60.480  -0.000  60.480   0.000   0.000 243.335

                      1                      2                      3
                     A1"                    E'                     E'
 Frequencies --      6.3238                99.3625                99.3633
 Red. masses --      1.0078                 3.5122                 3.5122
 Frc consts  --      0.0000                 0.0204                 0.0204
 IR Inten    --      0.0000                 7.7811                 7.7811

                      4                      5                      6
                     E"                     E"                     E'
 Frequencies --    245.2713               245.2717               377.8931
 Red. masses --      3.6361                 3.6361                 4.9374
 Frc consts  --      0.1289                 0.1289                 0.4154
 IR Inten    --      0.0000                 0.0000                 5.6103

                      7                      8                      9
                     E'                     E"                     E"
 Frequencies --    377.8932               530.2383               530.2384
 Red. masses --      4.9374                 9.5096                 9.5096
 Frc consts  --      0.4154                 1.5753                 1.5753
 IR Inten    --      5.6102                 0.0000                 0.0000

                     10                     11                     12
                     A1'                    A2"                    E"
 Frequencies --    560.0288               953.8489              1047.1541
 Red. masses --      4.3085                 4.5963                 1.3966
 Frc consts  --      0.7962                 2.4639                 0.9023
 IR Inten    --      0.0000                 3.7114                 0.0000

                     13                     14                     15
                     E"                     E'                     E'
 Frequencies --   1047.1542              1053.1099              1053.1099
 Red. masses --      1.3966                 1.3992                 1.3992
 Frc consts  --      0.9023                 0.9143                 0.9143
 IR Inten    --      0.0000                 1.8459                 1.8459

                     16                     17                     18
                     A1'                    A2"                    A1'
 Frequencies --   1289.7820              1413.5318              1420.0887
 Red. masses --      5.1503                 1.2322                 1.3211
 Frc consts  --      5.0480                 1.4506                 1.5697
 IR Inten    --      0.0000                14.5605                 0.0000

                     19                     20                     21
                     E"                     E"                     E'
 Frequencies --   1473.5258              1473.5260              1473.5491
 Red. masses --      1.0386                 1.0386                 1.0390
 Frc consts  --      1.3286                 1.3286                 1.3292
 IR Inten    --      0.0000                 0.0000                15.8156

                     22                     23                     24
                     E'                     A2"                    A1'
 Frequencies --   1473.5493              2264.1311              2361.8477
 Red. masses --      1.0390                11.8541                11.8653
 Frc consts  --      1.3292                35.8031                38.9970
 IR Inten    --     15.8161                 4.2265                 0.0000

                     25                     26                     27
                     A2"                    A1'                    E'
 Frequencies --   3021.8503              3022.2080              3077.9013
 Red. masses --      1.0338                 1.0341                 1.1007
 Frc consts  --      5.5622                 5.5651                 6.1435
 IR Inten    --     65.7316                 0.0000                14.1192

                     28                     29                     30
                     E'                     E"                     E"
 Frequencies --   3077.9016              3078.0362              3078.0365
 Red. masses --      1.1007                 1.1007                 1.1007
 Frc consts  --      6.1435                 6.1443                 6.1443
 IR Inten    --     14.1191                 0.0000                 0.0000

 - Thermochemistry -
 -------------------
 Temperature   298.150 Kelvin.  Pressure   1.00000 Atm.
 Atom     1 has atomic number  6 and mass  12.00000

 Molecular mass:    78.04695 amu.
 Principal axes and moments of inertia in atomic units:
                           1         2         3
     Eigenvalues --    22.403991614.307541614.30754
           X           -0.00000   0.42160   0.90678
           Y           -0.00000   0.90678  -0.42160
           Z            1.00000   0.00000   0.00000
 This molecule is a prolate symmetric top.
 Rotational symmetry number  6.
 Rotational temperatures (Kelvin)      3.86600     0.05365     0.05365
 Rotational constants (GHZ):          80.55446     1.11797     1.11797
 Zero-point vibrational energy     246584.6 (Joules/Mol)
                                   58.93514 (Kcal/Mol)
 Warning -- explicit consideration of  10 degrees of freedom as
           vibrations may cause significant error
 Vibrational temperatures:      9.10   142.96   142.96   352.89   352.89
          (Kelvin)            543.70   543.70   762.89   762.89   805.76
                             1372.38  1506.62  1506.62  1515.19  1515.19
                             1855.71  2033.76  2043.19  2120.08  2120.08
                             2120.11  2120.11  3257.58  3398.17  4347.77
                             4348.28  4428.41  4428.41  4428.61  4428.61

 Zero-point correction=                           0.093919 (Hartree/Particle)
 Thermal correction to Energy=                    0.101604
 Thermal correction to Enthalpy=                  0.102549
 Thermal correction to Gibbs Free Energy=         0.062305
 Sum of electronic and zero-point Energies=           -232.139486
 Sum of electronic and thermal Energies=              -232.131801
 Sum of electronic and thermal Enthalpies=            -232.130856
 Sum of electronic and thermal Free Energies=         -232.171100

                     E (Thermal)             CV                S
                      KCal/Mol        Cal/Mol-Kelvin    Cal/Mol-Kelvin
 Total                   63.758             24.330             84.699
 Electronic               0.000              0.000              0.000
 Translational            0.889              2.981             38.979
 Rotational               0.889              2.981             22.010
 Vibrational             61.980             18.368             23.710
 Vibration     1          0.593              1.987              8.922
 Vibration     2          0.604              1.950              3.467
 Vibration     3          0.604              1.950              3.467
 Vibration     4          0.660              1.771              1.764
 Vibration     5          0.660              1.771              1.764
 Vibration     6          0.748              1.517              1.048
 Vibration     7          0.748              1.517              1.048
 Vibration     8          0.885              1.183              0.587
 Vibration     9          0.885              1.183              0.587
 Vibration    10          0.916              1.118              0.524

 Optimization completed.
    -- Stationary point found.
 Normal termination of Gaussian 16 at Wed Jun 15 16:17:00 2022.
