 Gaussian 16, Revision B.01,

 --------------------------------------------
 # b3lyp/gen opt=cart freq CPHF(Grid=OneStep)
 --------------------------------------------

 ----------------------------
 2,4-hexadiyne, B3LYP/pcseg-2
 ----------------------------
 Symbolic Z-matrix:
 Charge =  0 Multiplicity = 1

 SCF Done:  E(RB3LYP) =  -232.233404834     A.U. after   17 cycles
 Optimization completed.
    -- Stationary point found.
 Normal termination of Gaussian 16 at Tue Oct  3 14:30:26 2023.

 ------------------------------------------------------------------
 #N Geom=AllCheck Guess=TCheck SCRF=Check GenChk RB3LYP/ChkBas Freq
 ------------------------------------------------------------------

 Structure from the checkpoint file:  "mec4me.chk"
 ----------------------------
 2,4-hexadiyne, B3LYP/pcseg-2
 ----------------------------
 Charge =  0 Multiplicity = 1

 SCF Done:  E(RB3LYP) =  -232.233404834     A.U. after    1 cycles

  Exact polarizability:  43.795  -0.000  43.796   0.000  -0.000 148.891
 Approx polarizability:  60.480   0.000  60.480   0.000   0.000 243.335

                      1                      2                      3
                     A1"                    E'                     E'
 Frequencies --      6.2507                99.3627                99.3632
 Red. masses --      1.0078                 3.5122                 3.5122
 Frc consts  --      0.0000                 0.0204                 0.0204
 IR Inten    --      0.0000                 7.7810                 7.7811

                      4                      5                      6
                     E"                     E"                     E'
 Frequencies --    245.2714               245.2714               377.8923
 Red. masses --      3.6361                 3.6361                 4.9374
 Frc consts  --      0.1289                 0.1289                 0.4154
 IR Inten    --      0.0000                 0.0000                 5.6102

                      7                      8                      9
                     E'                     E"                     E"
 Frequencies --    377.8923               530.2377               530.2377
 Red. masses --      4.9374                 9.5096                 9.5096
 Frc consts  --      0.4154                 1.5753                 1.5753
 IR Inten    --      5.6102                 0.0000                 0.0000

                     10                     11                     12
                     A1'                    A2"                    E"
 Frequencies --    560.0296               953.8507              1047.1543
 Red. masses --      4.3085                 4.5963                 1.3966
 Frc consts  --      0.7962                 2.4639                 0.9023
 IR Inten    --      0.0000                 3.7104                 0.0000

                     13                     14                     15
                     E"                     E'                     E'
 Frequencies --   1047.1544              1053.1098              1053.1098
 Red. masses --      1.3966                 1.3992                 1.3992
 Frc consts  --      0.9023                 0.9143                 0.9143
 IR Inten    --      0.0000                 1.8457                 1.8458

                     16                     17                     18
                     A1'                    A2"                    A1'
 Frequencies --   1289.7828              1413.5308              1420.0881
 Red. masses --      5.1500                 1.2323                 1.3212
 Frc consts  --      5.0477                 1.4506                 1.5698
 IR Inten    --      0.0000                14.5589                 0.0000

                     19                     20                     21
                     E"                     E"                     E'
 Frequencies --   1473.5256              1473.5257              1473.5487
 Red. masses --      1.0386                 1.0386                 1.0390
 Frc consts  --      1.3286                 1.3286                 1.3292
 IR Inten    --      0.0000                 0.0000                15.8164

                     22                     23                     24
                     E'                     A2"                    A1'
 Frequencies --   1473.5488              2264.1186              2361.8466
 Red. masses --      1.0390                11.8541                11.8653
 Frc consts  --      1.3292                35.8028                38.9971
 IR Inten    --     15.8164                 4.2261                 0.0000

                     25                     26                     27
                     A2"                    A1'                    E'
 Frequencies --   3021.8463              3022.2038              3077.8970
 Red. masses --      1.0338                 1.0341                 1.1007
 Frc consts  --      5.5622                 5.5650                 6.1435
 IR Inten    --     65.7209                 0.0000                14.1195

                     28                     29                     30
                     E'                     E"                     E"
 Frequencies --   3077.8971              3078.0319              3078.0320
 Red. masses --      1.1007                 1.1007                 1.1007
 Frc consts  --      6.1435                 6.1443                 6.1443
 IR Inten    --     14.1194                 0.0000                 0.0000

 - Thermochemistry -
 -------------------
 Temperature   298.150 Kelvin.  Pressure   1.00000 Atm.
 Atom     1 has atomic number  6 and mass  12.00000

 Molecular mass:    78.04695 amu.
 Principal axes and moments of inertia in atomic units:
                           1         2         3
     Eigenvalues --    22.403991614.307261614.30726
           X           -0.00000   0.89666   0.44271
           Y           -0.00000  -0.44271   0.89666
           Z            1.00000   0.00000   0.00000
 This molecule is a prolate symmetric top.
 Rotational symmetry number  6.
 Rotational temperatures (Kelvin)      3.86600     0.05365     0.05365
 Rotational constants (GHZ):          80.55447     1.11797     1.11797
 Zero-point vibrational energy     246583.9 (Joules/Mol)
                                   58.93497 (Kcal/Mol)
 Warning -- explicit consideration of  10 degrees of freedom as
           vibrations may cause significant error
 Vibrational temperatures:      8.99   142.96   142.96   352.89   352.89
          (Kelvin)            543.70   543.70   762.89   762.89   805.76
                             1372.38  1506.62  1506.62  1515.19  1515.19
                             1855.71  2033.76  2043.19  2120.07  2120.07
                             2120.11  2120.11  3257.56  3398.17  4347.76
                             4348.28  4428.41  4428.41  4428.60  4428.60

 Zero-point correction=                           0.093919 (Hartree/Particle)
 Thermal correction to Energy=                    0.101604
 Thermal correction to Enthalpy=                  0.102548
 Thermal correction to Gibbs Free Energy=         0.062294
 Sum of electronic and zero-point Energies=           -232.139486
 Sum of electronic and thermal Energies=              -232.131801
 Sum of electronic and thermal Enthalpies=            -232.130856
 Sum of electronic and thermal Free Energies=         -232.171111

                     E (Thermal)             CV                S
                      KCal/Mol        Cal/Mol-Kelvin    Cal/Mol-Kelvin
 Total                   63.758             24.330             84.722
 Electronic               0.000              0.000              0.000
 Translational            0.889              2.981             38.979
 Rotational               0.889              2.981             22.010
 Vibrational             61.980             18.368             23.733
 Vibration     1          0.593              1.987              8.945
 Vibration     2          0.604              1.950              3.467
 Vibration     3          0.604              1.950              3.467
 Vibration     4          0.660              1.771              1.764
 Vibration     5          0.660              1.771              1.764
 Vibration     6          0.748              1.517              1.048
 Vibration     7          0.748              1.517              1.048
 Vibration     8          0.885              1.183              0.587
 Vibration     9          0.885              1.183              0.587
 Vibration    10          0.916              1.118              0.524

 Optimization completed.
    -- Stationary point found.
 Normal termination of Gaussian 16 at Tue Oct  3 14:35:25 2023.
 Gaussian 16:  ES64L-G16RevB.01 20-Dec-2017

 ---------------------------------
 # rohf/gen geom=check guess=check
 ---------------------------------

 -------------------------------
 2,4-hexadiyne, ROHF/cc-pVTZ-F12
 -------------------------------
 Structure from the checkpoint file:  "mec4me.chk"
 Charge =  0 Multiplicity = 1

                         Standard orientation:
 ---------------------------------------------------------------------
 Center     Atomic      Atomic             Coordinates (Angstroms)
 Number     Number       Type             X           Y           Z
 ---------------------------------------------------------------------
      1          6           0        0.000000    0.000000    0.681831
      2          6           0        0.000000    0.000000   -0.681831
      3          6           0        0.000000    0.000000    1.889376
      4          6           0        0.000000    0.000000   -1.889376
      5          6           0        0.000000    0.000000    3.340393
      6          6           0        0.000000    0.000000   -3.340393
      7          1           0        0.000000    1.018581    3.733455
      8          1           0       -0.882117   -0.509291    3.733455
      9          1           0        0.882117   -0.509291    3.733455
     10          1           0        0.000000    1.018581   -3.733455
     11          1           0        0.882117   -0.509291   -3.733455
     12          1           0       -0.882117   -0.509291   -3.733455
 ---------------------------------------------------------------------

 SCF Done:  E(ROHF) =  -230.683635369     A.U. after   10 cycles

 The electronic state is 1-A1'.
 Alpha  occ. eigenvalues --  -11.25134 -11.25134 -11.24169 -11.24161 -11.23517
 Alpha  occ. eigenvalues --  -11.23398  -1.08766  -1.05517  -0.99534  -0.94218
 Alpha  occ. eigenvalues --   -0.79650  -0.64225  -0.62997  -0.59653  -0.59653
 Alpha  occ. eigenvalues --   -0.59292  -0.59292  -0.45881  -0.45881  -0.33463
 Alpha  occ. eigenvalues --   -0.33463
 Alpha virt. eigenvalues --    0.03814   0.05248   0.06791   0.07220   0.07220
 Alpha virt. eigenvalues --    0.07728   0.07728   0.08095   0.10902   0.10902
 Alpha virt. eigenvalues --    0.11930   0.13530   0.13530   0.13861   0.13861

 Mulliken charges and spin densities:
               1          2
     1  C    0.265029   0.000000
     2  C    0.265029   0.000000
     3  C   -0.233379   0.000000
     4  C   -0.233379   0.000000
     5  C   -0.366263   0.000000
     6  C   -0.366263   0.000000
     7  H    0.111538   0.000000
     8  H    0.111538   0.000000
     9  H    0.111538   0.000000
    10  H    0.111538   0.000000
    11  H    0.111538   0.000000
    12  H    0.111538   0.000000
 Sum of Mulliken charges =  -0.00000   0.00000

 Dipole moment (field-independent basis, Debye):
    X=             -0.0000    Y=             -0.0000    Z=             -0.0000  Tot=              0.0000
 Quadrupole moment (field-independent basis, Debye-Ang):
   XX=            -37.2804   YY=            -37.2804   ZZ=            -19.2952
   XY=              0.0000   XZ=              0.0000   YZ=              0.0000

 Normal termination of Gaussian 16 at Tue Oct  3 14:36:36 2023.
