 Gaussian 16, Revision B.01,
 Gaussian 16:  ES64L-G16RevB.01 20-Dec-2017

 --------------------
 # opt freq b3lyp/gen
 --------------------

 --------------------------------------
 3-methyl-1,4-pentadiyne, B3LYP/pcseg-2
 --------------------------------------
 Symbolic Z-matrix:
 Charge =  0 Multiplicity = 1

 SCF Done:  E(RB3LYP) =  -232.198302119     A.U. after   13 cycles
 SCF Done:  E(RB3LYP) =  -232.198372892     A.U. after    9 cycles
 SCF Done:  E(RB3LYP) =  -232.197940137     A.U. after   10 cycles
 SCF Done:  E(RB3LYP) =  -232.198372455     A.U. after    9 cycles
 SCF Done:  E(RB3LYP) =  -232.198383562     A.U. after    5 cycles
 SCF Done:  E(RB3LYP) =  -232.198389182     A.U. after    8 cycles
 Optimization completed.
    -- Stationary point found.
 Normal termination of Gaussian 16 at Sat Jun 18 10:09:34 2022.

 ------------------------------------------------------------------
 #N Geom=AllCheck Guess=TCheck SCRF=Check GenChk RB3LYP/ChkBas Freq
 ------------------------------------------------------------------

 Structure from the checkpoint file:  "/wrk/irikura/Gau-17433.chk"
 --------------------------------------
 3-methyl-1,4-pentadiyne, B3LYP/pcseg-2
 --------------------------------------
 Charge =  0 Multiplicity = 1

                         Standard orientation:
 ---------------------------------------------------------------------
 Center     Atomic      Atomic             Coordinates (Angstroms)
 Number     Number       Type             X           Y           Z
 ---------------------------------------------------------------------
      1          6           0       -0.245884    0.515152   -0.000000
      2          6           0       -0.259936   -0.310540    1.212990
      3          6           0       -0.259936   -0.310540   -1.212990
      4          6           0       -0.259936   -0.963223    2.217839
      5          6           0       -0.259936   -0.963223   -2.217839
      6          6           0        0.949162    1.496822   -0.000000
      7          1           0       -1.165633    1.110614    0.000000
      8          1           0       -0.262810   -1.549251    3.102708
      9          1           0       -0.262810   -1.549251   -3.102708
     10          1           0        1.888877    0.948367   -0.000000
     11          1           0        0.910581    2.126418    0.887223
     12          1           0        0.910581    2.126418   -0.887223
 ---------------------------------------------------------------------

 SCF Done:  E(RB3LYP) =  -232.198389182     A.U. after    1 cycles

 The electronic state is 1-A'.
 Alpha  occ. eigenvalues --  -10.23658 -10.18225 -10.18224 -10.18164 -10.17056
 Alpha  occ. eigenvalues --  -10.17056  -0.84127  -0.75250  -0.73531  -0.66621
 Alpha  occ. eigenvalues --   -0.56084  -0.53229  -0.49664  -0.49373  -0.43123
 Alpha  occ. eigenvalues --   -0.40009  -0.39015  -0.29661  -0.29391  -0.28004
 Alpha  occ. eigenvalues --   -0.27735
 Alpha virt. eigenvalues --    0.00300   0.01108   0.03250   0.03332   0.04266
 Alpha virt. eigenvalues --    0.04711   0.05331   0.05339   0.07859   0.08287
 Alpha virt. eigenvalues --    0.11873   0.12960   0.13326   0.15228   0.16981

 Mulliken charges:
               1
     1  C    0.085820
     2  C    0.199180
     3  C    0.199180
     4  C   -0.333924
     5  C   -0.333924
     6  C   -0.052584
     7  H    0.049812
     8  H    0.036278
     9  H    0.036278
    10  H    0.038613
    11  H    0.037635
    12  H    0.037635
 Sum of Mulliken charges =  -0.00000

 Dipole moment (field-independent basis, Debye):
    X=              0.1582    Y=              0.7075    Z=             -0.0000  Tot=              0.7250
 Quadrupole moment (field-independent basis, Debye-Ang):
   XX=            -37.6370   YY=            -34.0886   ZZ=            -31.7285
   XY=             -0.0788   XZ=              0.0000   YZ=              0.0000

  Exact polarizability:  47.593   4.345  62.990   0.000   0.000  85.898
 Approx polarizability:  65.527   1.407  92.348   0.000   0.000 126.639

                      1                      2                      3
                     A'                     A'                     A"
 Frequencies --    133.8732               200.0341               209.7714
 Red. masses --      3.9044                 3.3458                 2.5114
 Frc consts  --      0.0412                 0.0789                 0.0651
 IR Inten    --      0.8925                 4.7878                 0.4560

                      4                      5                      6
                     A"                     A"                     A"
 Frequencies --    236.8782               351.2949               473.8100
 Red. masses --      1.1460                 3.9012                 4.2846
 Frc consts  --      0.0379                 0.2837                 0.5667
 IR Inten    --      0.3722                 2.8273                 1.1236

                      7                      8                      9
                     A'                     A'                     A"
 Frequencies --    565.7996               568.3780               679.9776
 Red. masses --      4.1071                 5.8109                 1.2646
 Frc consts  --      0.7747                 1.1060                 0.3445
 IR Inten    --     19.7524                 6.2430                 0.1069

                     10                     11                     12
                     A'                     A"                     A'
 Frequencies --    680.9251               686.8461               689.5985
 Red. masses --      1.2741                 1.2721                 1.2961
 Frc consts  --      0.3481                 0.3536                 0.3632
 IR Inten    --     95.2018                31.6998                58.7696

                     13                     14                     15
                     A'                     A"                     A'
 Frequencies --    787.5792               929.9298              1025.6710
 Red. masses --      2.9981                 2.0776                 2.5971
 Frc consts  --      1.0957                 1.0585                 1.6097
 IR Inten    --      3.2171                 0.2788                 4.9110

                     16                     17                     18
                     A'                     A"                     A'
 Frequencies --   1075.3560              1138.4060              1302.4763
 Red. masses --      2.0474                 1.6020                 1.2914
 Frc consts  --      1.3950                 1.2232                 1.2907
 IR Inten    --      2.5222                12.3956                 1.2206

                     19                     20                     21
                     A"                     A'                     A'
 Frequencies --   1328.3479              1408.5323              1491.6844
 Red. masses --      1.4552                 1.1944                 1.0409
 Frc consts  --      1.5128                 1.3962                 1.3646
 IR Inten    --     23.7451                 1.8352                 7.3695

                     22                     23                     24
                     A"                     A"                     A'
 Frequencies --   1498.0672              2220.1498              2226.8785
 Red. masses --      1.0502                 5.9647                 5.9208
 Frc consts  --      1.3886                17.3223                17.2992
 IR Inten    --      1.8937                 6.7196                 1.0551

                     25                     26                     27
                     A'                     A'                     A"
 Frequencies --   3003.4260              3050.6414              3125.7067
 Red. masses --      1.0807                 1.0328                 1.1040
 Frc consts  --      5.7438                 5.6629                 6.3548
 IR Inten    --      2.6916                19.1358                17.9291

                     28                     29                     30
                     A'                     A"                     A'
 Frequencies --   3130.4153              3471.6180              3472.5445
 Red. masses --      1.1040                 1.1606                 1.1617
 Frc consts  --      6.3739                 8.2414                 8.2537
 IR Inten    --     13.3569               101.5178                36.2246

 - Thermochemistry -
 -------------------
 Temperature   298.150 Kelvin.  Pressure   1.00000 Atm.
 Atom     1 has atomic number  6 and mass  12.00000

 Molecular mass:    78.04695 amu.
 Principal axes and moments of inertia in atomic units:
                           1         2         3
     Eigenvalues --   328.99157 652.45822 921.79648
           X            0.00000   0.41758   0.90864
           Y            0.00000   0.90864  -0.41758
           Z            1.00000  -0.00000   0.00000
 This molecule is an asymmetric top.
 Rotational symmetry number  1.
 Rotational temperatures (Kelvin)      0.26327     0.13275     0.09396
 Rotational constants (GHZ):           5.48568     2.76606     1.95785
 Zero-point vibrational energy     246219.1 (Joules/Mol)
                                   58.84777 (Kcal/Mol)
 Warning -- explicit consideration of   8 degrees of freedom as
           vibrations may cause significant error
 Vibrational temperatures:    192.61   287.80   301.81   340.81   505.44
          (Kelvin)            681.71   814.06   817.77   978.34   979.70
                              988.22   992.18  1133.15  1337.96  1475.71
                             1547.20  1637.91  1873.97  1911.20  2026.56
                             2146.20  2155.38  3194.30  3203.98  4321.26
                             4389.19  4497.19  4503.97  4994.88  4996.22

 Zero-point correction=                           0.093780 (Hartree/Particle)
 Thermal correction to Energy=                    0.100586
 Thermal correction to Enthalpy=                  0.101530
 Thermal correction to Gibbs Free Energy=         0.063753
 Sum of electronic and zero-point Energies=           -232.104609
 Sum of electronic and thermal Energies=              -232.097804
 Sum of electronic and thermal Enthalpies=            -232.096859
 Sum of electronic and thermal Free Energies=         -232.134636

                     E (Thermal)             CV                S
                      KCal/Mol        Cal/Mol-Kelvin    Cal/Mol-Kelvin
 Total                   63.118             24.435             79.507
 Electronic               0.000              0.000              0.000
 Translational            0.889              2.981             38.979
 Rotational               0.889              2.981             26.784
 Vibrational             61.341             18.473             13.744
 Vibration     1          0.613              1.920              2.890
 Vibration     2          0.638              1.840              2.133
 Vibration     3          0.642              1.826              2.046
 Vibration     4          0.656              1.784              1.826
 Vibration     5          0.728              1.573              1.160
 Vibration     6          0.831              1.308              0.727
 Vibration     7          0.922              1.105              0.512
 Vibration     8          0.924              1.100              0.507

 Optimization completed.
    -- Stationary point found.
 Normal termination of Gaussian 16 at Sat Jun 18 10:11:52 2022.
