 Gaussian 16, Revision B.01,

 ---------------------------------------
 # b3lyp/gen opt freq CPHF(Grid=OneStep)
 ---------------------------------------

 --------------------------------------
 3-methyl-1,4-pentadiyne, B3LYP/pcseg-2
 --------------------------------------
 Symbolic Z-matrix:
 Charge =  0 Multiplicity = 1

 SCF Done:  E(RB3LYP) =  -232.198389182     A.U. after   13 cycles
 SCF Done:  E(RB3LYP) =  -232.198387984     A.U. after    7 cycles
 SCF Done:  E(RB3LYP) =  -232.198389120     A.U. after    6 cycles
 SCF Done:  E(RB3LYP) =  -232.198389251     A.U. after    6 cycles
 Optimization completed.
    -- Stationary point found.
 Normal termination of Gaussian 16 at Fri Sep 29 06:08:58 2023.

 ------------------------------------------------------------------
 #N Geom=AllCheck Guess=TCheck SCRF=Check GenChk RB3LYP/ChkBas Freq
 ------------------------------------------------------------------

 Structure from the checkpoint file:  "mec5diyne.chk"
 --------------------------------------
 3-methyl-1,4-pentadiyne, B3LYP/pcseg-2
 --------------------------------------
 Charge =  0 Multiplicity = 1

 SCF Done:  E(RB3LYP) =  -232.198389251     A.U. after    1 cycles

  Exact polarizability:  47.601   4.351  62.962   0.000   0.000  85.923
 Approx polarizability:  65.532   1.407  92.286   0.000   0.000 126.693

                      1                      2                      3
                     A'                     A'                     A"
 Frequencies --    133.7307               199.9848               209.7898
 Red. masses --      3.9044                 3.3466                 2.5212
 Frc consts  --      0.0411                 0.0789                 0.0654
 IR Inten    --      0.8922                 4.7883                 0.4626

                      4                      5                      6
                     A"                     A"                     A"
 Frequencies --    237.3592               351.1858               473.7901
 Red. masses --      1.1444                 3.8961                 4.2846
 Frc consts  --      0.0380                 0.2831                 0.5667
 IR Inten    --      0.3728                 2.8306                 1.1398

                      7                      8                      9
                     A'                     A'                     A"
 Frequencies --    565.7364               568.3254               679.9694
 Red. masses --      4.1450                 5.7384                 1.2646
 Frc consts  --      0.7816                 1.0920                 0.3445
 IR Inten    --     19.8003                 6.1550                 0.1254

                     10                     11                     12
                     A'                     A"                     A'
 Frequencies --    680.9160               686.8126               689.5603
 Red. masses --      1.2741                 1.2721                 1.2960
 Frc consts  --      0.3480                 0.3536                 0.3631
 IR Inten    --     95.1805                31.5549                58.8995

                     13                     14                     15
                     A'                     A"                     A'
 Frequencies --    787.5494               929.9249              1025.6294
 Red. masses --      2.9985                 2.0782                 2.5976
 Frc consts  --      1.0957                 1.0588                 1.6099
 IR Inten    --      3.2151                 0.2783                 4.9190

                     16                     17                     18
                     A'                     A"                     A'
 Frequencies --   1075.4345              1138.3420              1302.5239
 Red. masses --      2.0469                 1.6019                 1.2912
 Frc consts  --      1.3948                 1.2230                 1.2907
 IR Inten    --      2.5271                12.4180                 1.2239

                     19                     20                     21
                     A"                     A'                     A'
 Frequencies --   1328.2540              1408.6827              1491.7315
 Red. masses --      1.4550                 1.1945                 1.0409
 Frc consts  --      1.5124                 1.3965                 1.3647
 IR Inten    --     23.7215                 1.8290                 7.3722

                     22                     23                     24
                     A"                     A"                     A'
 Frequencies --   1498.1084              2220.2590              2227.0132
 Red. masses --      1.0502                 5.9641                 5.9203
 Frc consts  --      1.3887                17.3222                17.2996
 IR Inten    --      1.8953                 6.7207                 1.0578

                     25                     26                     27
                     A'                     A'                     A"
 Frequencies --   3003.4614              3050.2116              3125.1029
 Red. masses --      1.0807                 1.0328                 1.1039
 Frc consts  --      5.7439                 5.6615                 6.3523
 IR Inten    --      2.6863                19.1322                17.9272

                     28                     29                     30
                     A'                     A"                     A'
 Frequencies --   3129.9609              3471.7008              3472.6280
 Red. masses --      1.1039                 1.1606                 1.1617
 Frc consts  --      6.3720                 8.2419                 8.2542
 IR Inten    --     13.3549               101.6112                36.1359

 - Thermochemistry -
 -------------------
 Temperature   298.150 Kelvin.  Pressure   1.00000 Atm.
 Atom     1 has atomic number  6 and mass  12.00000

 Molecular mass:    78.04695 amu.
 Principal axes and moments of inertia in atomic units:
                           1         2         3
     Eigenvalues --   328.89279 652.63666 921.87141
           X           -0.00000   0.41849   0.90822
           Y           -0.00000   0.90822  -0.41849
           Z            1.00000   0.00000  -0.00000
 This molecule is an asymmetric top.
 Rotational symmetry number  1.
 Rotational temperatures (Kelvin)      0.26335     0.13271     0.09395
 Rotational constants (GHZ):           5.48732     2.76531     1.95769
 Zero-point vibrational energy     246213.5 (Joules/Mol)
                                   58.84643 (Kcal/Mol)
 Warning -- explicit consideration of   8 degrees of freedom as
           vibrations may cause significant error
 Vibrational temperatures:    192.41   287.73   301.84   341.51   505.28
          (Kelvin)            681.68   813.97   817.69   978.32   979.69
                              988.17   992.12  1133.11  1337.95  1475.65
                             1547.31  1637.82  1874.04  1911.06  2026.78
                             2146.27  2155.44  3194.46  3204.18  4321.31
                             4388.57  4496.33  4503.32  4995.00  4996.34

 Zero-point correction=                           0.093778 (Hartree/Particle)
 Thermal correction to Energy=                    0.100583
 Thermal correction to Enthalpy=                  0.101527
 Thermal correction to Gibbs Free Energy=         0.063751
 Sum of electronic and zero-point Energies=           -232.104611
 Sum of electronic and thermal Energies=              -232.097806
 Sum of electronic and thermal Enthalpies=            -232.096862
 Sum of electronic and thermal Free Energies=         -232.134638

                     E (Thermal)             CV                S
                      KCal/Mol        Cal/Mol-Kelvin    Cal/Mol-Kelvin
 Total                   63.117             24.435             79.507
 Electronic               0.000              0.000              0.000
 Translational            0.889              2.981             38.979
 Rotational               0.889              2.981             26.784
 Vibrational             61.339             18.473             13.744
 Vibration     1          0.613              1.920              2.892
 Vibration     2          0.638              1.840              2.133
 Vibration     3          0.642              1.826              2.046
 Vibration     4          0.656              1.783              1.823
 Vibration     5          0.728              1.573              1.161
 Vibration     6          0.831              1.308              0.727
 Vibration     7          0.922              1.105              0.513
 Vibration     8          0.924              1.100              0.507

 Optimization completed.
    -- Stationary point found.
 Normal termination of Gaussian 16 at Fri Sep 29 06:18:33 2023.
 Gaussian 16:  ES64L-G16RevB.01 20-Dec-2017

 ---------------------------------
 # rohf/gen geom=check guess=check
 ---------------------------------

 -----------------------------------------
 3-methyl-1,4-pentadiyne, ROHF/cc-pVTZ-F12
 -----------------------------------------
 Structure from the checkpoint file:  "mec5diyne.chk"
 Charge =  0 Multiplicity = 1

                         Standard orientation:
 ---------------------------------------------------------------------
 Center     Atomic      Atomic             Coordinates (Angstroms)
 Number     Number       Type             X           Y           Z
 ---------------------------------------------------------------------
      1          6           0       -0.245429    0.515188   -0.000000
      2          6           0       -0.260564   -0.310708    1.212901
      3          6           0       -0.260564   -0.310708   -1.212901
      4          6           0       -0.260564   -0.962581    2.218243
      5          6           0       -0.260564   -0.962581   -2.218243
      6          6           0        0.950497    1.495815   -0.000000
      7          1           0       -1.164699    1.111379   -0.000000
      8          1           0       -0.263685   -1.547815    3.103626
      9          1           0       -0.263685   -1.547815   -3.103626
     10          1           0        1.889778    0.946539   -0.000000
     11          1           0        0.912706    2.125577    0.887218
     12          1           0        0.912706    2.125577   -0.887218
 ---------------------------------------------------------------------

 SCF Done:  E(ROHF) =  -230.660097461     A.U. after   12 cycles

 The electronic state is 1-A'.
 Alpha  occ. eigenvalues --  -11.29129 -11.23898 -11.23897 -11.23487 -11.22636
 Alpha  occ. eigenvalues --  -11.22636  -1.12237  -1.02433  -0.99714  -0.89742
 Alpha  occ. eigenvalues --   -0.74938  -0.71641  -0.66766  -0.66085  -0.57776
 Alpha  occ. eigenvalues --   -0.54974  -0.53662  -0.40911  -0.40545  -0.38801
 Alpha  occ. eigenvalues --   -0.38411
 Alpha virt. eigenvalues --    0.04191   0.04759   0.05060   0.05615   0.07430
 Alpha virt. eigenvalues --    0.07777   0.08354   0.08550   0.09053   0.10541
 Alpha virt. eigenvalues --    0.11034   0.11724   0.12581   0.13072   0.14527

 Mulliken charges and spin densities:
               1          2
     1  C    0.026536   0.000000
     2  C    0.011872   0.000000
     3  C    0.011872   0.000000
     4  C   -0.331268   0.000000
     5  C   -0.331268   0.000000
     6  C   -0.308011   0.000000
     7  H    0.130908   0.000000
     8  H    0.222773   0.000000
     9  H    0.222773   0.000000
    10  H    0.119079   0.000000
    11  H    0.112366   0.000000
    12  H    0.112366   0.000000
 Sum of Mulliken charges =  -0.00000   0.00000

 Dipole moment (field-independent basis, Debye):
    X=              0.1821    Y=              0.6832    Z=             -0.0000  Tot=              0.7071
 Quadrupole moment (field-independent basis, Debye-Ang):
   XX=            -38.0196   YY=            -34.0468   ZZ=            -31.2243
   XY=             -0.0574   XZ=              0.0000   YZ=             -0.0000

 Normal termination of Gaussian 16 at Fri Sep 29 06:21:34 2023.
