 Gaussian 16, Revision B.01,
 Gaussian 16:  ES64L-G16RevB.01 20-Dec-2017

 --------------------
 # b3lyp/gen opt freq
 --------------------

 -----------------------------
 methyl formate, B3LYP/pcseg-2
 -----------------------------
 Symbolic Z-matrix:
 Charge =  0 Multiplicity = 1

 SCF Done:  E(RB3LYP) =  -229.165396693     A.U. after   13 cycles
 SCF Done:  E(RB3LYP) =  -229.165426312     A.U. after    8 cycles
 SCF Done:  E(RB3LYP) =  -229.165427534     A.U. after    7 cycles
 Optimization completed.
    -- Stationary point found.
 Normal termination of Gaussian 16 at Sat Feb 26 08:51:41 2022.

 ------------------------------------------------------------------
 #N Geom=AllCheck Guess=TCheck SCRF=Check GenChk RB3LYP/ChkBas Freq
 ------------------------------------------------------------------

 Structure from the checkpoint file:  "/wrk/irikura/Gau-21326.chk"
 -----------------------------
 methyl formate, B3LYP/pcseg-2
 -----------------------------
 Charge =  0 Multiplicity = 1

                         Standard orientation:
 ---------------------------------------------------------------------
 Center     Atomic      Atomic             Coordinates (Angstroms)
 Number     Number       Type             X           Y           Z
 ---------------------------------------------------------------------
      1          6           0        1.368767    0.417706    0.000000
      2          8           0        0.000000    0.865822    0.000000
      3          6           0       -0.932314   -0.094144    0.000000
      4          8           0       -0.725823   -1.275003    0.000000
      5          1           0        1.970785    1.319892    0.000000
      6          1           0        1.571357   -0.179036    0.886879
      7          1           0        1.571357   -0.179036   -0.886879
      8          1           0       -1.925639    0.370258    0.000000
 ---------------------------------------------------------------------

 SCF Done:  E(RB3LYP) =  -229.165427534     A.U. after    1 cycles

 The electronic state is 1-A'.
 Alpha  occ. eigenvalues --  -19.18471 -19.12626 -10.30917 -10.23690  -1.12051
 Alpha  occ. eigenvalues --   -1.03628  -0.74973  -0.60730  -0.54359  -0.49687
 Alpha  occ. eigenvalues --   -0.48651  -0.43673  -0.41139  -0.37611  -0.32492
 Alpha  occ. eigenvalues --   -0.29900
 Alpha virt. eigenvalues --   -0.01300   0.01842   0.04205   0.06073   0.06753
 Alpha virt. eigenvalues --    0.07940   0.12655   0.15688   0.18204   0.18344
 Alpha virt. eigenvalues --    0.20214   0.25878   0.29361   0.30252   0.31848

 Mulliken charges:
               1
     1  C    0.148051
     2  O   -0.370245
     3  C    0.455082
     4  O   -0.411906
     5  H    0.046932
     6  H    0.048583
     7  H    0.048583
     8  H    0.034921
 Sum of Mulliken charges =  -0.00000

 Dipole moment (field-independent basis, Debye):
    X=              1.0017    Y=              1.7084    Z=              0.0000  Tot=              1.9804
 Quadrupole moment (field-independent basis, Debye-Ang):
   XX=            -19.5143   YY=            -28.8561   ZZ=            -23.1947
   XY=             -1.2248   XZ=              0.0000   YZ=              0.0000

  Exact polarizability:  37.074   2.256  34.822   0.000   0.000  24.412
 Approx polarizability:  44.588   1.805  54.396   0.000   0.000  33.291

                      1                      2                      3
                     A"                     A'                     A"
 Frequencies --    123.0599               297.1799               343.5461
 Red. masses --      1.0790                 3.9264                 2.3597
 Frc consts  --      0.0096                 0.2043                 0.1641
 IR Inten    --      0.1655                14.0819                27.3035

                      4                      5                      6
                     A'                     A'                     A"
 Frequencies --    775.7653               927.7725              1041.4042
 Red. masses --      4.9793                 5.3177                 1.6597
 Frc consts  --      1.7655                 2.6969                 1.0605
 IR Inten    --      7.8448                25.1023                 0.0210

                      7                      8                      9
                     A"                     A'                     A'
 Frequencies --   1173.8121              1179.1531              1228.5770
 Red. masses --      1.2781                 2.4501                 2.4522
 Frc consts  --      1.0375                 2.0071                 2.1808
 IR Inten    --      1.4216               141.7630               182.8189

                     10                     11                     12
                     A'                     A'                     A"
 Frequencies --   1398.9006              1469.4001              1485.9730
 Red. masses --      1.1371                 1.1769                 1.0453
 Frc consts  --      1.3111                 1.4972                 1.3599
 IR Inten    --      1.2478                 4.2548                 9.1980

                     13                     14                     15
                     A'                     A'                     A'
 Frequencies --   1497.2460              1791.9324              3041.6893
 Red. masses --      1.0463                 9.0652                 1.0895
 Frc consts  --      1.3820                17.1502                 5.9390
 IR Inten    --     10.4477               324.3817                58.2469

                     16                     17                     18
                     A'                     A"                     A'
 Frequencies --   3059.0004              3130.9575              3165.9914
 Red. masses --      1.0305                 1.1070                 1.1063
 Frc consts  --      5.6816                 6.3934                 6.5332
 IR Inten    --     15.5563                16.4421                11.0170

 - Thermochemistry -
 -------------------
 Temperature   298.150 Kelvin.  Pressure   1.00000 Atm.
 Atom     1 has atomic number  6 and mass  12.00000

 Molecular mass:    60.02113 amu.
 Principal axes and moments of inertia in atomic units:
                           1         2         3
     Eigenvalues --    88.78952 265.08236 342.54862
           X            0.78631  -0.61783   0.00000
           Y            0.61783   0.78631   0.00000
           Z            0.00000  -0.00000   1.00000
 This molecule is an asymmetric top.
 Rotational symmetry number  1.
 Rotational temperatures (Kelvin)      0.97550     0.32674     0.25285
 Rotational constants (GHZ):          20.32606     6.80823     5.26857
 Zero-point vibrational energy     162281.6 (Joules/Mol)
                                   38.78623 (Kcal/Mol)
 Warning -- explicit consideration of   3 degrees of freedom as
           vibrations may cause significant error
 Vibrational temperatures:    177.06   427.58   494.29  1116.15  1334.86
          (Kelvin)           1498.35  1688.85  1696.54  1767.65  2012.71
                             2114.14  2137.98  2154.20  2578.19  4376.31
                             4401.22  4504.75  4555.16

 Zero-point correction=                           0.061810 (Hartree/Particle)
 Thermal correction to Energy=                    0.066368
 Thermal correction to Enthalpy=                  0.067312
 Thermal correction to Gibbs Free Energy=         0.034956
 Sum of electronic and zero-point Energies=           -229.103618
 Sum of electronic and thermal Energies=              -229.099059
 Sum of electronic and thermal Enthalpies=            -229.098115
 Sum of electronic and thermal Free Energies=         -229.130472

                     E (Thermal)             CV                S
                      KCal/Mol        Cal/Mol-Kelvin    Cal/Mol-Kelvin
 Total                   41.647             13.647             68.100
 Electronic               0.000              0.000              0.000
 Translational            0.889              2.981             38.196
 Rotational               0.889              2.981             23.604
 Vibrational             39.869              7.685              6.299
 Vibration     1          0.610              1.930              3.052
 Vibration     2          0.691              1.679              1.433
 Vibration     3          0.722              1.588              1.196

 Optimization completed.
    -- Stationary point found.
 Normal termination of Gaussian 16 at Sat Feb 26 08:53:24 2022.
