 Gaussian 16, Revision B.01,
 Gaussian 16:  ES64L-G16RevB.01 20-Dec-2017

 --------------------
 # opt freq b3lyp/gen
 --------------------

 -----------------------------
 2-methylindole, B3LYP/pcseg-2
 -----------------------------
 Symbolic Z-matrix:
 Charge =  0 Multiplicity = 1

 SCF Done:  E(RB3LYP) =  -403.292962101     A.U. after   14 cycles
 SCF Done:  E(RB3LYP) =  -403.293360037     A.U. after   10 cycles
 SCF Done:  E(RB3LYP) =  -403.293363431     A.U. after    7 cycles
 Optimization completed.
    -- Stationary point found.
 Normal termination of Gaussian 16 at Tue Jun 14 21:08:08 2022.

 ------------------------------------------------------------------
 #N Geom=AllCheck Guess=TCheck SCRF=Check GenChk RB3LYP/ChkBas Freq
 ------------------------------------------------------------------

 Structure from the checkpoint file:  "/wrk/irikura/Gau-13438.chk"
 -----------------------------
 2-methylindole, B3LYP/pcseg-2
 -----------------------------
 Charge =  0 Multiplicity = 1

                         Standard orientation:
 ---------------------------------------------------------------------
 Center     Atomic      Atomic             Coordinates (Angstroms)
 Number     Number       Type             X           Y           Z
 ---------------------------------------------------------------------
      1          6           0        3.263768   -0.992140    0.000000
      2          6           0        1.811148   -0.663157    0.000000
      3          6           0        0.716536   -1.483202    0.000000
      4          7           0        1.378115    0.651110    0.000000
      5          6           0       -0.452984   -0.653700    0.000000
      6          6           0        0.000000    0.689652    0.000000
      7          6           0       -1.831364   -0.899694    0.000000
      8          6           0       -0.877006    1.770799    0.000000
      9          6           0       -2.707224    0.172546    0.000000
     10          6           0       -2.235389    1.494875    0.000000
     11          1           0        3.768919   -0.588821    0.881406
     12          1           0        3.403343   -2.070870    0.000000
     13          1           0        3.768919   -0.588821   -0.881406
     14          1           0        0.746163   -2.559808    0.000000
     15          1           0        1.980925    1.453389    0.000000
     16          1           0       -2.206909   -1.914670    0.000000
     17          1           0       -0.515456    2.790963    0.000000
     18          1           0       -3.773850   -0.007150    0.000000
     19          1           0       -2.943765    2.312151    0.000000
 ---------------------------------------------------------------------

 SCF Done:  E(RB3LYP) =  -403.293363431     A.U. after    1 cycles

 The electronic state is 1-A'.
 Alpha  occ. eigenvalues --  -14.35407 -10.21093 -10.20087 -10.18303 -10.16969
 Alpha  occ. eigenvalues --  -10.16597 -10.16440 -10.16368 -10.15914 -10.15515
 Alpha  occ. eigenvalues --   -0.98126  -0.83993  -0.78779  -0.75971  -0.73058
 Alpha  occ. eigenvalues --   -0.68837  -0.61441  -0.58469  -0.58204  -0.53343
 Alpha  occ. eigenvalues --   -0.48454  -0.46007  -0.44835  -0.44528  -0.42987
 Alpha  occ. eigenvalues --   -0.41263  -0.40416  -0.40024  -0.38768  -0.35366
 Alpha  occ. eigenvalues --   -0.33626  -0.33298  -0.28078  -0.22366  -0.20725
 Alpha virt. eigenvalues --   -0.01624   0.00500   0.01665   0.02621   0.03411
 Alpha virt. eigenvalues --    0.04609   0.04872   0.05744   0.07051   0.08264
 Alpha virt. eigenvalues --    0.08355   0.09963   0.11551   0.12681   0.13769

 Mulliken charges:
               1
     1  C   -0.172979
     2  C    0.318585
     3  C   -0.284919
     4  N   -0.284519
     5  C    0.370578
     6  C    0.274933
     7  C   -0.247475
     8  C   -0.195304
     9  C   -0.018650
    10  C   -0.024106
    11  H    0.039472
    12  H    0.045535
    13  H    0.039472
    14  H   -0.006311
    15  H    0.124047
    16  H    0.000160
    17  H    0.001863
    18  H    0.008701
    19  H    0.010917
 Sum of Mulliken charges =   0.00000

 Dipole moment (field-independent basis, Debye):
    X=              2.5058    Y=              0.7265    Z=             -0.0000  Tot=              2.6090
 Quadrupole moment (field-independent basis, Debye-Ang):
   XX=            -51.4233   YY=            -53.3299   ZZ=            -64.4466
   XY=              1.8583   XZ=              0.0000   YZ=             -0.0000

  Exact polarizability: 159.940 -13.788 116.401  -0.000   0.000  63.257
 Approx polarizability: 245.473  -8.938 196.839  -0.000   0.000 100.167

                      1                      2                      3
                     A"                     A"                     A"
 Frequencies --    115.3679               133.3304               245.7203
 Red. masses --      1.2977                 2.1647                 4.3553
 Frc consts  --      0.0102                 0.0227                 0.1549
 IR Inten    --      0.8485                 4.6807                 0.0859

                      4                      5                      6
                     A'                     A"                     A"
 Frequencies --    255.5251               306.7419               376.1992
 Red. masses --      2.9166                 4.0305                 1.1727
 Frc consts  --      0.1122                 0.2234                 0.0978
 IR Inten    --      1.0204                 0.0336                50.3888

                      7                      8                      9
                     A"                     A'                     A'
 Frequencies --    438.4240               459.0578               497.4828
 Red. masses --      2.8999                 3.1567                 5.4178
 Frc consts  --      0.3284                 0.3919                 0.7900
 IR Inten    --      6.7275                 3.0625                 0.1828

                     10                     11                     12
                     A"                     A'                     A"
 Frequencies --    588.9715               621.6798               638.1342
 Red. masses --      3.4434                 6.6622                 2.8719
 Frc consts  --      0.7038                 1.5170                 0.6890
 IR Inten    --      0.6736                 1.3657                25.0817

                     13                     14                     15
                     A'                     A"                     A"
 Frequencies --    668.2677               748.8990               765.6408
 Red. masses --      4.9789                 1.2487                 2.5504
 Frc consts  --      1.3100                 0.4126                 0.8809
 IR Inten    --      1.4947                34.4002                25.5801

                     16                     17                     18
                     A"                     A'                     A"
 Frequencies --    806.3613               830.4866               863.0099
 Red. masses --      1.4823                 3.4339                 1.5730
 Frc consts  --      0.5679                 1.3954                 0.6903
 IR Inten    --     40.8340                 0.0252                 2.0267

                     19                     20                     21
                     A'                     A"                     A"
 Frequencies --    903.6048               945.6544               985.0293
 Red. masses --      4.8520                 1.3710                 1.2838
 Frc consts  --      2.3342                 0.7224                 0.7339
 IR Inten    --      0.0560                 2.2624                 0.0500

                     22                     23                     24
                     A'                     A'                     A'
 Frequencies --    993.6471              1013.1923              1037.2449
 Red. masses --      2.3090                 2.0864                 2.2731
 Frc consts  --      1.3432                 1.2619                 1.4409
 IR Inten    --      2.7581                 1.3919                 5.6677

                     25                     26                     27
                     A"                     A'                     A'
 Frequencies --   1064.2802              1137.3482              1165.9780
 Red. masses --      1.4815                 1.6259                 1.3686
 Frc consts  --      0.9887                 1.2392                 1.0962
 IR Inten    --      1.0077                 0.8293                 2.8120

                     28                     29                     30
                     A'                     A'                     A'
 Frequencies --   1178.1165              1231.2546              1258.6468
 Red. masses --      1.1665                 2.2319                 1.5806
 Frc consts  --      0.9539                 1.9935                 1.4753
 IR Inten    --      4.3697                 7.0211                 4.7351

                     31                     32                     33
                     A'                     A'                     A'
 Frequencies --   1302.4856              1366.4839              1371.9934
 Red. masses --      4.6188                 2.7814                 2.3945
 Frc consts  --      4.6167                 3.0600                 2.6557
 IR Inten    --     52.6579                 8.5784                14.2140

                     34                     35                     36
                     A'                     A'                     A"
 Frequencies --   1421.1734              1434.2938              1480.5639
 Red. masses --      1.4158                 2.0931                 1.0419
 Frc consts  --      1.6848                 2.5369                 1.3456
 IR Inten    --      8.8117                25.9520                 7.1030

                     37                     38                     39
                     A'                     A'                     A'
 Frequencies --   1482.3711              1498.7201              1525.3815
 Red. masses --      2.6600                 1.2102                 2.8256
 Frc consts  --      3.4439                 1.6015                 3.8737
 IR Inten    --     35.1150                 1.9331                 2.2128

                     40                     41                     42
                     A'                     A'                     A'
 Frequencies --   1591.7712              1625.3809              1656.8886
 Red. masses --      5.2311                 5.2968                 5.9675
 Frc consts  --      7.8092                 8.2447                 9.6522
 IR Inten    --     11.7363                10.7303                 5.7282

                     43                     44                     45
                     A'                     A"                     A'
 Frequencies --   3018.4129              3058.6270              3122.0375
 Red. masses --      1.0400                 1.1004                 1.0963
 Frc consts  --      5.5827                 6.0653                 6.2956
 IR Inten    --     52.4761                17.2101                 9.9831

                     46                     47                     48
                     A'                     A'                     A'
 Frequencies --   3164.6892              3170.4705              3181.1942
 Red. masses --      1.0853                 1.0883                 1.0929
 Frc consts  --      6.4040                 6.4451                 6.5162
 IR Inten    --      2.4580                 2.5010                29.3167

                     49                     50                     51
                     A'                     A'                     A'
 Frequencies --   3193.0890              3239.3920              3663.5339
 Red. masses --      1.0963                 1.0957                 1.0797
 Frc consts  --      6.5856                 6.7743                 8.5381
 IR Inten    --     18.7708                 5.0911                54.3791

 - Thermochemistry -
 -------------------
 Temperature   298.150 Kelvin.  Pressure   1.00000 Atm.
 Atom     1 has atomic number  6 and mass  12.00000

 Molecular mass:   131.07350 amu.
 Principal axes and moments of inertia in atomic units:
                           1         2         3
     Eigenvalues --   472.258831817.970912279.04581
           X            0.95275   0.30376   0.00000
           Y           -0.30376   0.95275   0.00000
           Z           -0.00000   0.00000   1.00000
 This molecule is an asymmetric top.
 Rotational symmetry number  1.
 Warning -- assumption of classical behavior for rotation
           may cause significant error
 Rotational temperatures (Kelvin)      0.18340     0.04764     0.03800
 Rotational constants (GHZ):           3.82151     0.99272     0.79188
 Zero-point vibrational energy     411768.1 (Joules/Mol)
                                   98.41494 (Kcal/Mol)
 Warning -- explicit consideration of  10 degrees of freedom as
           vibrations may cause significant error
 Vibrational temperatures:    165.99   191.83   353.54   367.64   441.33
          (Kelvin)            541.27   630.79   660.48   715.77   847.40
                              894.46   918.13   961.49  1077.50  1101.59
                             1160.17  1194.88  1241.68  1300.09  1360.59
                             1417.24  1429.64  1457.76  1492.36  1531.26
                             1636.39  1677.58  1695.05  1771.50  1810.91
                             1873.99  1966.07  1973.99  2044.75  2063.63
                             2130.20  2132.80  2156.32  2194.68  2290.20
                             2338.56  2383.89  4342.82  4400.68  4491.92
                             4553.28  4561.60  4577.03  4594.14  4660.76
                             5271.01

 Zero-point correction=                           0.156834 (Hartree/Particle)
 Thermal correction to Energy=                    0.164918
 Thermal correction to Enthalpy=                  0.165863
 Thermal correction to Gibbs Free Energy=         0.124269
 Sum of electronic and zero-point Energies=           -403.136529
 Sum of electronic and thermal Energies=              -403.128445
 Sum of electronic and thermal Enthalpies=            -403.127501
 Sum of electronic and thermal Free Energies=         -403.169095

                     E (Thermal)             CV                S
                      KCal/Mol        Cal/Mol-Kelvin    Cal/Mol-Kelvin
 Total                  103.488             32.436             87.541
 Electronic               0.000              0.000              0.000
 Translational            0.889              2.981             40.525
 Rotational               0.889              2.981             29.061
 Vibrational            101.710             26.475             17.956
 Vibration     1          0.608              1.937              3.177
 Vibration     2          0.613              1.920              2.897
 Vibration     3          0.660              1.770              1.761
 Vibration     4          0.666              1.753              1.692
 Vibration     5          0.697              1.661              1.380
 Vibration     6          0.747              1.521              1.054
 Vibration     7          0.799              1.386              0.832
 Vibration     8          0.817              1.341              0.769
 Vibration     9          0.853              1.256              0.664
 Vibration    10          0.946              1.055              0.469

 Optimization completed.
    -- Stationary point found.
 Normal termination of Gaussian 16 at Tue Jun 14 21:21:43 2022.
