 Gaussian 16, Revision B.01,

 ---------------------------------------
 # b3lyp/gen opt freq CPHF(Grid=OneStep)
 ---------------------------------------

 -----------------------------
 2-methylindole, B3LYP/pcseg-2
 -----------------------------
 Symbolic Z-matrix:
 Charge =  0 Multiplicity = 1

 SCF Done:  E(RB3LYP) =  -403.293363431     A.U. after   14 cycles
 Optimization completed.
    -- Stationary point found.
 Normal termination of Gaussian 16 at Thu Sep 28 11:46:12 2023.

 ------------------------------------------------------------------
 #N Geom=AllCheck Guess=TCheck SCRF=Check GenChk RB3LYP/ChkBas Freq
 ------------------------------------------------------------------

 Structure from the checkpoint file:  "mein2.chk"
 -----------------------------
 2-methylindole, B3LYP/pcseg-2
 -----------------------------
 Charge =  0 Multiplicity = 1

 SCF Done:  E(RB3LYP) =  -403.293363431     A.U. after    1 cycles

  Exact polarizability: 159.939 -13.787 116.402  -0.000   0.000  63.257
 Approx polarizability: 245.473  -8.938 196.839  -0.000   0.000 100.167

                      1                      2                      3
                     A"                     A"                     A"
 Frequencies --    115.3691               133.3309               245.7204
 Red. masses --      1.2978                 2.1646                 4.3552
 Frc consts  --      0.0102                 0.0227                 0.1549
 IR Inten    --      0.8487                 4.6807                 0.0859

                      4                      5                      6
                     A'                     A"                     A"
 Frequencies --    255.5255               306.7426               376.1947
 Red. masses --      2.9166                 4.0305                 1.1727
 Frc consts  --      0.1122                 0.2234                 0.0978
 IR Inten    --      1.0204                 0.0336                50.3947

                      7                      8                      9
                     A"                     A'                     A'
 Frequencies --    438.4260               459.0583               497.4824
 Red. masses --      2.8999                 3.1567                 5.4178
 Frc consts  --      0.3284                 0.3919                 0.7900
 IR Inten    --      6.7261                 3.0625                 0.1828

                     10                     11                     12
                     A"                     A'                     A"
 Frequencies --    588.9722               621.6785               638.1360
 Red. masses --      3.4433                 6.6622                 2.8719
 Frc consts  --      0.7037                 1.5170                 0.6890
 IR Inten    --      0.6735                 1.3655                25.0807

                     13                     14                     15
                     A'                     A"                     A"
 Frequencies --    668.2685               748.8981               765.6425
 Red. masses --      4.9789                 1.2487                 2.5502
 Frc consts  --      1.3100                 0.4126                 0.8808
 IR Inten    --      1.4944                34.3967                25.5865

                     16                     17                     18
                     A"                     A'                     A"
 Frequencies --    806.3583               830.4868               863.0091
 Red. masses --      1.4824                 3.4339                 1.5730
 Frc consts  --      0.5679                 1.3954                 0.6903
 IR Inten    --     40.8341                 0.0251                 2.0272

                     19                     20                     21
                     A'                     A"                     A"
 Frequencies --    903.6042               945.6538               985.0303
 Red. masses --      4.8521                 1.3710                 1.2838
 Frc consts  --      2.3342                 0.7224                 0.7339
 IR Inten    --      0.0560                 2.2633                 0.0499

                     22                     23                     24
                     A'                     A'                     A'
 Frequencies --    993.6449              1013.1945              1037.2448
 Red. masses --      2.3093                 2.0862                 2.2731
 Frc consts  --      1.3434                 1.2618                 1.4409
 IR Inten    --      2.7585                 1.3920                 5.6692

                     25                     26                     27
                     A"                     A'                     A'
 Frequencies --   1064.2816              1137.3474              1165.9765
 Red. masses --      1.4815                 1.6259                 1.3686
 Frc consts  --      0.9887                 1.2392                 1.0963
 IR Inten    --      1.0084                 0.8290                 2.8133

                     28                     29                     30
                     A'                     A'                     A'
 Frequencies --   1178.1167              1231.2532              1258.6460
 Red. masses --      1.1665                 2.2319                 1.5806
 Frc consts  --      0.9539                 1.9935                 1.4753
 IR Inten    --      4.3699                 7.0217                 4.7356

                     31                     32                     33
                     A'                     A'                     A'
 Frequencies --   1302.4824              1366.4804              1371.9928
 Red. masses --      4.6188                 2.7811                 2.3947
 Frc consts  --      4.6166                 3.0597                 2.6559
 IR Inten    --     52.6531                 8.5756                14.2142

                     34                     35                     36
                     A'                     A'                     A"
 Frequencies --   1421.1739              1434.2917              1480.5665
 Red. masses --      1.4159                 2.0930                 1.0419
 Frc consts  --      1.6849                 2.5369                 1.3456
 IR Inten    --      8.8136                25.9552                 7.1028

                     37                     38                     39
                     A'                     A'                     A'
 Frequencies --   1482.3713              1498.7165              1525.3780
 Red. masses --      2.6599                 1.2102                 2.8255
 Frc consts  --      3.4438                 1.6016                 3.8735
 IR Inten    --     35.1082                 1.9347                 2.2123

                     40                     41                     42
                     A'                     A'                     A'
 Frequencies --   1591.7720              1625.3799              1656.8872
 Red. masses --      5.2311                 5.2969                 5.9675
 Frc consts  --      7.8092                 8.2448                 9.6523
 IR Inten    --     11.7403                10.7337                 5.7295

                     43                     44                     45
                     A'                     A"                     A'
 Frequencies --   3018.4098              3058.6268              3122.0335
 Red. masses --      1.0400                 1.1004                 1.0962
 Frc consts  --      5.5827                 6.0653                 6.2956
 IR Inten    --     52.4724                17.2123                 9.9821

                     46                     47                     48
                     A'                     A'                     A'
 Frequencies --   3164.6868              3170.4678              3181.1904
 Red. masses --      1.0853                 1.0883                 1.0929
 Frc consts  --      6.4040                 6.4451                 6.5162
 IR Inten    --      2.4592                 2.4997                29.3185

                     49                     50                     51
                     A'                     A'                     A'
 Frequencies --   3193.0887              3239.3923              3663.5398
 Red. masses --      1.0963                 1.0957                 1.0797
 Frc consts  --      6.5856                 6.7743                 8.5381
 IR Inten    --     18.7680                 5.0924                54.3765

 - Thermochemistry -
 -------------------
 Temperature   298.150 Kelvin.  Pressure   1.00000 Atm.
 Atom     1 has atomic number  6 and mass  12.00000

 Molecular mass:   131.07350 amu.
 Principal axes and moments of inertia in atomic units:
                           1         2         3
     Eigenvalues --   472.258911817.970892279.04586
           X            0.95275   0.30376   0.00000
           Y           -0.30376   0.95275   0.00000
           Z           -0.00000   0.00000   1.00000
 This molecule is an asymmetric top.
 Rotational symmetry number  1.
 Warning -- assumption of classical behavior for rotation
           may cause significant error
 Rotational temperatures (Kelvin)      0.18340     0.04764     0.03800
 Rotational constants (GHZ):           3.82151     0.99272     0.79188
 Zero-point vibrational energy     411767.9 (Joules/Mol)
                                   98.41490 (Kcal/Mol)
 Warning -- explicit consideration of  10 degrees of freedom as
           vibrations may cause significant error
 Vibrational temperatures:    165.99   191.83   353.54   367.64   441.33
          (Kelvin)            541.26   630.80   660.48   715.77   847.40
                              894.46   918.14   961.49  1077.50  1101.59
                             1160.17  1194.89  1241.68  1300.08  1360.58
                             1417.24  1429.63  1457.76  1492.36  1531.26
                             1636.39  1677.58  1695.05  1771.50  1810.91
                             1873.98  1966.06  1973.99  2044.75  2063.63
                             2130.21  2132.80  2156.32  2194.68  2290.20
                             2338.56  2383.89  4342.82  4400.68  4491.91
                             4553.28  4561.60  4577.02  4594.14  4660.76
                             5271.02

 Zero-point correction=                           0.156834 (Hartree/Particle)
 Thermal correction to Energy=                    0.164918
 Thermal correction to Enthalpy=                  0.165863
 Thermal correction to Gibbs Free Energy=         0.124269
 Sum of electronic and zero-point Energies=           -403.136529
 Sum of electronic and thermal Energies=              -403.128445
 Sum of electronic and thermal Enthalpies=            -403.127501
 Sum of electronic and thermal Free Energies=         -403.169095

                     E (Thermal)             CV                S
                      KCal/Mol        Cal/Mol-Kelvin    Cal/Mol-Kelvin
 Total                  103.488             32.436             87.541
 Electronic               0.000              0.000              0.000
 Translational            0.889              2.981             40.525
 Rotational               0.889              2.981             29.061
 Vibrational            101.710             26.475             17.956
 Vibration     1          0.608              1.937              3.177
 Vibration     2          0.613              1.920              2.897
 Vibration     3          0.660              1.770              1.761
 Vibration     4          0.666              1.753              1.692
 Vibration     5          0.697              1.661              1.380
 Vibration     6          0.747              1.521              1.054
 Vibration     7          0.799              1.386              0.832
 Vibration     8          0.817              1.341              0.769
 Vibration     9          0.853              1.256              0.664
 Vibration    10          0.946              1.055              0.469

 Optimization completed.
    -- Stationary point found.
 Normal termination of Gaussian 16 at Thu Sep 28 12:32:20 2023.
 Gaussian 16:  ES64L-G16RevB.01 20-Dec-2017

 ---------------------------------
 # rohf/gen geom=check guess=check
 ---------------------------------

 --------------------------------
 2-methylindole, ROHF/cc-pVTZ-F12
 --------------------------------
 Structure from the checkpoint file:  "mein2.chk"
 Charge =  0 Multiplicity = 1

                         Standard orientation:
 ---------------------------------------------------------------------
 Center     Atomic      Atomic             Coordinates (Angstroms)
 Number     Number       Type             X           Y           Z
 ---------------------------------------------------------------------
      1          6           0        3.263768   -0.992140    0.000000
      2          6           0        1.811148   -0.663157    0.000000
      3          6           0        0.716536   -1.483202    0.000000
      4          7           0        1.378115    0.651110    0.000000
      5          6           0       -0.452984   -0.653700    0.000000
      6          6           0        0.000000    0.689652    0.000000
      7          6           0       -1.831364   -0.899694    0.000000
      8          6           0       -0.877006    1.770799    0.000000
      9          6           0       -2.707224    0.172546    0.000000
     10          6           0       -2.235389    1.494875    0.000000
     11          1           0        3.768919   -0.588821    0.881406
     12          1           0        3.403343   -2.070870    0.000000
     13          1           0        3.768919   -0.588821   -0.881406
     14          1           0        0.746163   -2.559808    0.000000
     15          1           0        1.980925    1.453389    0.000000
     16          1           0       -2.206909   -1.914670    0.000000
     17          1           0       -0.515456    2.790963    0.000000
     18          1           0       -3.773850   -0.007150    0.000000
     19          1           0       -2.943765    2.312151    0.000000
 ---------------------------------------------------------------------

 SCF Done:  E(ROHF) =  -400.667101768     A.U. after   13 cycles

 The electronic state is 1-A'.
 Alpha  occ. eigenvalues --  -15.59501 -11.27371 -11.26005 -11.23694 -11.22587
 Alpha  occ. eigenvalues --  -11.22361 -11.22235 -11.22073 -11.21514 -11.20729
 Alpha  occ. eigenvalues --   -1.29393  -1.12903  -1.05989  -1.02265  -0.99081
 Alpha  occ. eigenvalues --   -0.93383  -0.82710  -0.79639  -0.78006  -0.71584
 Alpha  occ. eigenvalues --   -0.66097  -0.63055  -0.60827  -0.60717  -0.59299
 Alpha  occ. eigenvalues --   -0.57069  -0.55332  -0.55106  -0.53779  -0.50080
 Alpha  occ. eigenvalues --   -0.47856  -0.45953  -0.38182  -0.29812  -0.27710
 Alpha virt. eigenvalues --    0.03692   0.04647   0.05016   0.06073   0.06428
 Alpha virt. eigenvalues --    0.07024   0.08250   0.08329   0.08757   0.09872
 Alpha virt. eigenvalues --    0.10067   0.10388   0.10702   0.11108   0.12233

 Mulliken charges and spin densities:
               1          2
     1  C   -0.329081   0.000000
     2  C    0.329807   0.000000
     3  C   -0.332579   0.000000
     4  N   -0.686790   0.000000
     5  C    0.172276   0.000000
     6  C    0.253330   0.000000
     7  C   -0.234760   0.000000
     8  C   -0.098784   0.000000
     9  C   -0.170884   0.000000
    10  C   -0.176167   0.000000
    11  H    0.099689   0.000000
    12  H    0.124896   0.000000
    13  H    0.099689   0.000000
    14  H    0.135494   0.000000
    15  H    0.307783   0.000000
    16  H    0.127701   0.000000
    17  H    0.113177   0.000000
    18  H    0.131798   0.000000
    19  H    0.133407   0.000000
 Sum of Mulliken charges =  -0.00000   0.00000

 Dipole moment (field-independent basis, Debye):
    X=              2.4904    Y=              0.6753    Z=             -0.0000  Tot=              2.5804
 Quadrupole moment (field-independent basis, Debye-Ang):
   XX=            -50.7922   YY=            -53.0327   ZZ=            -65.4790
   XY=              1.7569   XZ=             -0.0000   YZ=             -0.0000

 Normal termination of Gaussian 16 at Thu Sep 28 13:04:52 2023.
