 Gaussian 16, Revision B.01,
 Gaussian 16:  ES64L-G16RevB.01 20-Dec-2017

 --------------------
 # b3lyp/gen opt freq
 --------------------

 -------------------------
 2-butanone, B3LYP/pcseg-2
 -------------------------
 Symbolic Z-matrix:
 Charge =  0 Multiplicity = 1

 SCF Done:  E(RB3LYP) =  -232.569403279     A.U. after   12 cycles
 SCF Done:  E(RB3LYP) =  -232.569499373     A.U. after    9 cycles
 SCF Done:  E(RB3LYP) =  -232.569500135     A.U. after    7 cycles
 SCF Done:  E(RB3LYP) =  -232.569501086     A.U. after    7 cycles
 SCF Done:  E(RB3LYP) =  -232.569501679     A.U. after    6 cycles
 SCF Done:  E(RB3LYP) =  -232.569502746     A.U. after    8 cycles
 SCF Done:  E(RB3LYP) =  -232.569503485     A.U. after    8 cycles
 SCF Done:  E(RB3LYP) =  -232.569504328     A.U. after    8 cycles
 SCF Done:  E(RB3LYP) =  -232.569505011     A.U. after    8 cycles
 SCF Done:  E(RB3LYP) =  -232.569505362     A.U. after    8 cycles
 Optimization completed.
    -- Stationary point found.
 Normal termination of Gaussian 16 at Fri Mar  4 08:39:30 2022.

 ------------------------------------------------------------------
 #N Geom=AllCheck Guess=TCheck SCRF=Check GenChk RB3LYP/ChkBas Freq
 ------------------------------------------------------------------

 Structure from the checkpoint file:  "/wrk/irikura/Gau-22987.chk"
 -------------------------
 2-butanone, B3LYP/pcseg-2
 -------------------------
 Charge =  0 Multiplicity = 1

                         Standard orientation:
 ---------------------------------------------------------------------
 Center     Atomic      Atomic             Coordinates (Angstroms)
 Number     Number       Type             X           Y           Z
 ---------------------------------------------------------------------
      1          6           0        1.883253   -0.506823    0.015115
      2          6           0        0.528417    0.170488   -0.008910
      3          6           0       -0.683409   -0.747401   -0.026564
      4          6           0       -2.020335   -0.020912    0.021638
      5          8           0        0.422043    1.375079   -0.010006
      6          1           0        2.672232    0.235396   -0.070900
      7          1           0        2.005144   -1.057160    0.950857
      8          1           0        1.967448   -1.234373   -0.794152
      9          1           0       -2.844739   -0.733574    0.000306
     10          1           0       -2.107810    0.578217    0.926976
     11          1           0       -2.128307    0.655678   -0.824648
     12          1           0       -0.605841   -1.369149   -0.925058
     13          1           0       -0.582027   -1.447780    0.808999
 ---------------------------------------------------------------------

 SCF Done:  E(RB3LYP) =  -232.569505362     A.U. after    1 cycles

 The electronic state is 1-A.
 Alpha  occ. eigenvalues --  -19.11411 -10.26371 -10.18475 -10.17829 -10.16386
 Alpha  occ. eigenvalues --   -1.04806  -0.79183  -0.74339  -0.64730  -0.52987
 Alpha  occ. eigenvalues --   -0.47885  -0.47837  -0.44760  -0.42932  -0.41313
 Alpha  occ. eigenvalues --   -0.37321  -0.37020  -0.36861  -0.35214  -0.25645
 Alpha virt. eigenvalues --   -0.02365   0.00364   0.03165   0.05343   0.05902
 Alpha virt. eigenvalues --    0.07501   0.08713   0.09097   0.10562   0.11477
 Alpha virt. eigenvalues --    0.14085   0.15292   0.16451   0.17559   0.19233

 Mulliken charges:
               1
     1  C   -0.088560
     2  C    0.279452
     3  C   -0.010331
     4  C   -0.052819
     5  O   -0.400052
     6  H    0.065425
     7  H    0.035850
     8  H    0.031470
     9  H    0.025464
    10  H    0.031052
    11  H    0.033505
    12  H    0.025657
    13  H    0.023887
 Sum of Mulliken charges =  -0.00000

 Dipole moment (field-independent basis, Debye):
    X=              0.1661    Y=             -2.9404    Z=              0.0126  Tot=              2.9451
 Quadrupole moment (field-independent basis, Debye-Ang):
   XX=            -30.4186   YY=            -35.9057   ZZ=            -30.8964
   XY=             -1.2075   XZ=              0.0626   YZ=              0.0156

  Exact polarizability:  59.888  -1.483  54.797   0.126   0.003  42.467
 Approx polarizability:  69.088  -1.628  83.943   0.224  -0.068  62.417

                      1                      2                      3
                      A                      A                      A
 Frequencies --     22.5200                96.1753               200.6121
 Red. masses --      1.3367                 1.3934                 1.1122
 Frc consts  --      0.0004                 0.0076                 0.0264
 IR Inten    --      0.0487                 0.1798                 0.1624

                      4                      5                      6
                      A                      A                      A
 Frequencies --    247.3468               402.0004               474.4133
 Red. masses --      3.1235                 2.8274                 1.8883
 Frc consts  --      0.1126                 0.2692                 0.2504
 IR Inten    --      5.2308                 3.6446                 0.2366

                      7                      8                      9
                      A                      A                      A
 Frequencies --    589.7659               754.9490               760.0989
 Red. masses --      3.8763                 1.4011                 2.3336
 Frc consts  --      0.7944                 0.4705                 0.7944
 IR Inten    --      8.1042                 3.0444                 3.5858

                     10                     11                     12
                      A                      A                      A
 Frequencies --    939.4395               954.3309              1000.3311
 Red. masses --      1.8189                 1.2459                 1.8288
 Frc consts  --      0.9458                 0.6686                 1.0782
 IR Inten    --     15.4073                 3.2727                 2.1860

                     13                     14                     15
                      A                      A                      A
 Frequencies --   1106.7898              1134.0891              1187.6212
 Red. masses --      2.0501                 1.9430                 2.3606
 Frc consts  --      1.4796                 1.4724                 1.9617
 IR Inten    --      1.6153                 0.2639                73.2650

                     16                     17                     18
                      A                      A                      A
 Frequencies --   1285.4843              1370.5708              1387.7252
 Red. masses --      1.1920                 1.5897                 1.3965
 Frc consts  --      1.1605                 1.7594                 1.5845
 IR Inten    --      0.0237                14.5764                40.9023

                     19                     20                     21
                      A                      A                      A
 Frequencies --   1419.4120              1452.3707              1467.0163
 Red. masses --      1.2220                 1.0796                 1.0645
 Frc consts  --      1.4506                 1.3417                 1.3498
 IR Inten    --      5.5818                 4.2578                24.1341

                     22                     23                     24
                      A                      A                      A
 Frequencies --   1477.8029              1492.8867              1500.4695
 Red. masses --      1.0497                 1.0367                 1.0507
 Frc consts  --      1.3507                 1.3613                 1.3937
 IR Inten    --     10.2721                 7.8052                 8.4991

                     25                     26                     27
                      A                      A                      A
 Frequencies --   1781.5615              3012.5180              3034.3635
 Red. masses --     10.0483                 1.0600                 1.0588
 Frc consts  --     18.7907                 5.6680                 5.7437
 IR Inten    --    164.5941                16.6859                 5.5533

                     28                     29                     30
                      A                      A                      A
 Frequencies --   3035.4649              3046.7736              3088.9874
 Red. masses --      1.0763                 1.0355                 1.0983
 Frc consts  --      5.8428                 5.6637                 6.1746
 IR Inten    --      9.9945                22.7089                 9.3431

                     31                     32                     33
                      A                      A                      A
 Frequencies --   3109.3050              3116.4954              3142.3655
 Red. masses --      1.1018                 1.1021                 1.1019
 Frc consts  --      6.2758                 6.3068                 6.4108
 IR Inten    --     20.5802                21.4987                 9.7774

 - Thermochemistry -
 -------------------
 Temperature   298.150 Kelvin.  Pressure   1.00000 Atm.
 Atom     1 has atomic number  6 and mass  12.00000

 Molecular mass:    72.05751 amu.
 Principal axes and moments of inertia in atomic units:
                           1         2         3
     Eigenvalues --   188.26715 503.85299 658.94823
           X            0.99955  -0.03004   0.00030
           Y            0.03004   0.99955   0.00099
           Z           -0.00033  -0.00098   1.00000
 This molecule is an asymmetric top.
 Rotational symmetry number  1.
 Rotational temperatures (Kelvin)      0.46006     0.17190     0.13144
 Rotational constants (GHZ):           9.58607     3.58188     2.73882
 Zero-point vibrational energy     293635.7 (Joules/Mol)
                                   70.18062 (Kcal/Mol)
 Warning -- explicit consideration of   7 degrees of freedom as
           vibrations may cause significant error
 Vibrational temperatures:     32.40   138.37   288.64   355.88   578.39
          (Kelvin)            682.57   848.54  1086.20  1093.61  1351.64
                             1373.07  1439.25  1592.42  1631.70  1708.72
                             1849.53  1971.95  1996.63  2042.22  2089.64
                             2110.71  2126.23  2147.93  2158.84  2563.27
                             4334.34  4365.77  4367.36  4383.63  4444.36
                             4473.60  4483.94  4521.16

 Zero-point correction=                           0.111840 (Hartree/Particle)
 Thermal correction to Energy=                    0.118513
 Thermal correction to Enthalpy=                  0.119457
 Thermal correction to Gibbs Free Energy=         0.080752
 Sum of electronic and zero-point Energies=           -232.457665
 Sum of electronic and thermal Energies=              -232.450993
 Sum of electronic and thermal Enthalpies=            -232.450049
 Sum of electronic and thermal Free Energies=         -232.488753

                     E (Thermal)             CV                S
                      KCal/Mol        Cal/Mol-Kelvin    Cal/Mol-Kelvin
 Total                   74.368             21.687             81.460
 Electronic               0.000              0.000              0.000
 Translational            0.889              2.981             38.741
 Rotational               0.889              2.981             25.639
 Vibrational             72.590             15.726             17.080
 Vibration     1          0.593              1.985              6.399
 Vibration     2          0.603              1.952              3.530
 Vibration     3          0.638              1.839              2.127
 Vibration     4          0.661              1.767              1.749
 Vibration     5          0.768              1.466              0.955
 Vibration     6          0.831              1.307              0.725
 Vibration     7          0.947              1.054              0.468

                           ! Non-Optimized Parameters !
 Normal termination of Gaussian 16 at Fri Mar  4 08:46:18 2022.
