 Gaussian 16, Revision B.01,
 Gaussian 16:  ES64L-G16RevB.01 20-Dec-2017

 ---------------------------------------
 # b3lyp/gen opt freq CPHF(Grid=OneStep)
 ---------------------------------------

 -------------------------
 2-butanone, B3LYP/pcseg-2
 -------------------------
 Symbolic Z-matrix:
 Charge =  0 Multiplicity = 1

 SCF Done:  E(RB3LYP) =  -232.569403279     A.U. after   12 cycles
 SCF Done:  E(RB3LYP) =  -232.569499373     A.U. after    9 cycles
 SCF Done:  E(RB3LYP) =  -232.569500135     A.U. after    7 cycles
 SCF Done:  E(RB3LYP) =  -232.569501086     A.U. after    7 cycles
 SCF Done:  E(RB3LYP) =  -232.569501623     A.U. after    7 cycles
 SCF Done:  E(RB3LYP) =  -232.569502491     A.U. after    8 cycles
 SCF Done:  E(RB3LYP) =  -232.569503259     A.U. after    8 cycles
 SCF Done:  E(RB3LYP) =  -232.569504070     A.U. after    8 cycles
 SCF Done:  E(RB3LYP) =  -232.569504866     A.U. after    8 cycles
 SCF Done:  E(RB3LYP) =  -232.569505340     A.U. after    8 cycles
 SCF Done:  E(RB3LYP) =  -232.569505375     A.U. after    6 cycles
 Optimization completed.
    -- Stationary point found.
 Normal termination of Gaussian 16 at Sat Sep 16 15:23:19 2023.

 ------------------------------------------------------------------
 #N Geom=AllCheck Guess=TCheck SCRF=Check GenChk RB3LYP/ChkBas Freq
 ------------------------------------------------------------------

 Structure from the checkpoint file:  "/wrk/irikura/Gau-261306.chk"
 -------------------------
 2-butanone, B3LYP/pcseg-2
 -------------------------
 Charge =  0 Multiplicity = 1

                         Standard orientation:
 ---------------------------------------------------------------------
 Center     Atomic      Atomic             Coordinates (Angstroms)
 Number     Number       Type             X           Y           Z
 ---------------------------------------------------------------------
      1          6           0        1.883246   -0.506824    0.015032
      2          6           0        0.528417    0.170491   -0.008854
      3          6           0       -0.683413   -0.747407   -0.026408
      4          6           0       -2.020335   -0.020904    0.021509
      5          8           0        0.422053    1.375077   -0.009948
      6          1           0        2.672248    0.235454   -0.070296
      7          1           0        2.004954   -1.057894    0.950359
      8          1           0        1.967596   -1.233727   -0.794801
      9          1           0       -2.844750   -0.733538   -0.000280
     10          1           0       -2.108125    0.577998    0.926967
     11          1           0       -2.127979    0.655898   -0.824646
     12          1           0       -0.605767   -1.369386   -0.924733
     13          1           0       -0.582089   -1.447558    0.809349
 ---------------------------------------------------------------------

 SCF Done:  E(RB3LYP) =  -232.569505375     A.U. after    1 cycles

 The electronic state is 1-A.
 Alpha  occ. eigenvalues --  -19.11412 -10.26371 -10.18475 -10.17829 -10.16386
 Alpha  occ. eigenvalues --   -1.04806  -0.79183  -0.74339  -0.64730  -0.52987
 Alpha  occ. eigenvalues --   -0.47885  -0.47837  -0.44760  -0.42932  -0.41313
 Alpha  occ. eigenvalues --   -0.37321  -0.37020  -0.36862  -0.35214  -0.25645
 Alpha virt. eigenvalues --   -0.02365   0.00364   0.03165   0.05343   0.05902
 Alpha virt. eigenvalues --    0.07501   0.08714   0.09097   0.10563   0.11477
 Alpha virt. eigenvalues --    0.14084   0.15293   0.16451   0.17559   0.19233

 Mulliken charges:
               1
     1  C   -0.088531
     2  C    0.279425
     3  C   -0.010301
     4  C   -0.052810
     5  O   -0.400046
     6  H    0.065428
     7  H    0.035825
     8  H    0.031471
     9  H    0.025463
    10  H    0.031042
    11  H    0.033516
    12  H    0.025637
    13  H    0.023881
 Sum of Mulliken charges =  -0.00000

 Dipole moment (field-independent basis, Debye):
    X=              0.1661    Y=             -2.9403    Z=              0.0125  Tot=              2.9451
 Quadrupole moment (field-independent basis, Debye-Ang):
   XX=            -30.4187   YY=            -35.9057   ZZ=            -30.8963
   XY=             -1.2075   XZ=              0.0622   YZ=              0.0155

  Exact polarizability:  59.888  -1.483  54.797   0.125   0.003  42.467
 Approx polarizability:  69.087  -1.627  83.943   0.222  -0.067  62.417

                      1                      2                      3
                      A                      A                      A
 Frequencies --     21.9992                96.1520               200.5866
 Red. masses --      1.3362                 1.3940                 1.1123
 Frc consts  --      0.0004                 0.0076                 0.0264
 IR Inten    --      0.0486                 0.1797                 0.1623

                      4                      5                      6
                      A                      A                      A
 Frequencies --    247.3414               402.0068               474.4030
 Red. masses --      3.1234                 2.8274                 1.8882
 Frc consts  --      0.1126                 0.2692                 0.2504
 IR Inten    --      5.2319                 3.6456                 0.2358

                      7                      8                      9
                      A                      A                      A
 Frequencies --    589.7638               754.9576               760.0831
 Red. masses --      3.8764                 1.4004                 2.3358
 Frc consts  --      0.7944                 0.4703                 0.7951
 IR Inten    --      8.1034                 3.0435                 3.5886

                     10                     11                     12
                      A                      A                      A
 Frequencies --    939.4358               954.3252              1000.3380
 Red. masses --      1.8193                 1.2457                 1.8288
 Frc consts  --      0.9460                 0.6684                 1.0782
 IR Inten    --     15.4011                 3.2705                 2.1879

                     13                     14                     15
                      A                      A                      A
 Frequencies --   1106.7836              1134.0958              1187.6232
 Red. masses --      2.0502                 1.9430                 2.3606
 Frc consts  --      1.4797                 1.4724                 1.9617
 IR Inten    --      1.6161                 0.2633                73.2605

                     16                     17                     18
                      A                      A                      A
 Frequencies --   1285.4866              1370.5651              1387.7256
 Red. masses --      1.1920                 1.5897                 1.3964
 Frc consts  --      1.1605                 1.7595                 1.5844
 IR Inten    --      0.0237                14.5815                40.8997

                     19                     20                     21
                      A                      A                      A
 Frequencies --   1419.4115              1452.3690              1467.0203
 Red. masses --      1.2220                 1.0796                 1.0645
 Frc consts  --      1.4506                 1.3417                 1.3498
 IR Inten    --      5.5824                 4.2504                24.1413

                     22                     23                     24
                      A                      A                      A
 Frequencies --   1477.8066              1492.8906              1500.4624
 Red. masses --      1.0497                 1.0367                 1.0507
 Frc consts  --      1.3507                 1.3613                 1.3937
 IR Inten    --     10.2722                 7.8062                 8.5017

                     25                     26                     27
                      A                      A                      A
 Frequencies --   1781.5973              3012.5390              3034.3862
 Red. masses --     10.0485                 1.0600                 1.0587
 Frc consts  --     18.7919                 5.6681                 5.7435
 IR Inten    --    164.5995                16.6856                 5.5621

                     28                     29                     30
                      A                      A                      A
 Frequencies --   3035.4878              3046.7819              3089.0131
 Red. masses --      1.0763                 1.0356                 1.0983
 Frc consts  --      5.8432                 5.6637                 6.1747
 IR Inten    --      9.9878                22.7072                 9.3398

                     31                     32                     33
                      A                      A                      A
 Frequencies --   3109.3073              3116.5187              3142.3526
 Red. masses --      1.1018                 1.1021                 1.1019
 Frc consts  --      6.2758                 6.3069                 6.4108
 IR Inten    --     20.5918                21.4929                 9.7790

 - Thermochemistry -
 -------------------
 Temperature   298.150 Kelvin.  Pressure   1.00000 Atm.
 Atom     1 has atomic number  6 and mass  12.00000

 Molecular mass:    72.05751 amu.
 Principal axes and moments of inertia in atomic units:
                           1         2         3
     Eigenvalues --   188.26615 503.85130 658.94757
           X            0.99955  -0.03004   0.00030
           Y            0.03004   0.99955   0.00099
           Z           -0.00033  -0.00098   1.00000
 This molecule is an asymmetric top.
 Rotational symmetry number  1.
 Rotational temperatures (Kelvin)      0.46006     0.17190     0.13144
 Rotational constants (GHZ):           9.58612     3.58189     2.73882
 Zero-point vibrational energy     293633.1 (Joules/Mol)
                                   70.17999 (Kcal/Mol)
 Warning -- explicit consideration of   7 degrees of freedom as
           vibrations may cause significant error
 Vibrational temperatures:     31.65   138.34   288.60   355.87   578.40
          (Kelvin)            682.56   848.54  1086.22  1093.59  1351.64
                             1373.06  1439.26  1592.41  1631.71  1708.72
                             1849.53  1971.94  1996.63  2042.22  2089.64
                             2110.71  2126.23  2147.94  2158.83  2563.32
                             4334.37  4365.80  4367.39  4383.64  4444.40
                             4473.60  4483.98  4521.14

 Zero-point correction=                           0.111839 (Hartree/Particle)
 Thermal correction to Energy=                    0.118513
 Thermal correction to Enthalpy=                  0.119457
 Thermal correction to Gibbs Free Energy=         0.080730
 Sum of electronic and zero-point Energies=           -232.457666
 Sum of electronic and thermal Energies=              -232.450993
 Sum of electronic and thermal Enthalpies=            -232.450048
 Sum of electronic and thermal Free Energies=         -232.488775

                     E (Thermal)             CV                S
                      KCal/Mol        Cal/Mol-Kelvin    Cal/Mol-Kelvin
 Total                   74.368             21.687             81.508
 Electronic               0.000              0.000              0.000
 Translational            0.889              2.981             38.741
 Rotational               0.889              2.981             25.639
 Vibrational             72.590             15.726             17.128
 Vibration     1          0.593              1.985              6.445
 Vibration     2          0.603              1.952              3.531
 Vibration     3          0.638              1.839              2.128
 Vibration     4          0.661              1.767              1.749
 Vibration     5          0.768              1.466              0.955
 Vibration     6          0.831              1.307              0.725
 Vibration     7          0.947              1.054              0.468

                           ! Non-Optimized Parameters !
 Normal termination of Gaussian 16 at Sat Sep 16 15:32:34 2023.
