 Gaussian 16, Revision B.01,

 ---------------------------------------
 # b3lyp/gen opt freq CPHF(Grid=OneStep)
 ---------------------------------------

 ------------------------------------
 methoxycarbonylmethyl, B3LYP/pcseg-2
 ------------------------------------
 Symbolic Z-matrix:
 Charge =  0 Multiplicity = 2

 SCF Done:  E(UB3LYP) =  -267.840000714     A.U. after   16 cycles
 Optimization completed.
    -- Stationary point found.
 Normal termination of Gaussian 16 at Thu Sep 28 17:19:26 2023.

 ------------------------------------------------------------------
 #N Geom=AllCheck Guess=TCheck SCRF=Check GenChk UB3LYP/ChkBas Freq
 ------------------------------------------------------------------

 Structure from the checkpoint file:  "meoacyl.chk"
 ------------------------------------
 methoxycarbonylmethyl, B3LYP/pcseg-2
 ------------------------------------
 Charge =  0 Multiplicity = 2

 SCF Done:  E(UB3LYP) =  -267.840000714     A.U. after    1 cycles

  Exact polarizability:  46.551   3.847  53.589   0.000  -0.000  31.364
 Approx polarizability:  71.073  -0.334  63.813   0.000   0.000  43.456

                      1                      2                      3
                     A"                     A"                     A'
 Frequencies --    132.7869               173.1492               283.6237
 Red. masses --      1.1019                 3.0210                 3.1720
 Frc consts  --      0.0114                 0.0534                 0.1503
 IR Inten    --      1.0402                 8.4188                13.3865

                      4                      5                      6
                     A"                     A'                     A"
 Frequencies --    314.0137               423.6213               624.2223
 Red. masses --      1.0496                 2.9773                 1.7965
 Frc consts  --      0.0610                 0.3148                 0.4124
 IR Inten    --      0.0007                 5.9117                 4.4412

                      7                      8                      9
                     A'                     A"                     A'
 Frequencies --    655.7064               775.2926               850.3027
 Red. masses --      4.9124                 3.0412                 3.3199
 Frc consts  --      1.2444                 1.0770                 1.4142
 IR Inten    --      3.7017                45.8047                27.3448

                     10                     11                     12
                     A'                     A'                     A"
 Frequencies --   1008.9293              1073.8530              1173.4736
 Red. masses --      1.9561                 5.3634                 1.2817
 Frc consts  --      1.1732                 3.6440                 1.0399
 IR Inten    --      2.5954                84.1041                 1.0843

                     13                     14                     15
                     A'                     A'                     A'
 Frequencies --   1212.0933              1272.8671              1452.6885
 Red. masses --      1.5028                 3.9922                 1.2118
 Frc consts  --      1.3008                 3.8109                 1.5067
 IR Inten    --     12.3510               294.1525                22.9751

                     16                     17                     18
                     A'                     A"                     A'
 Frequencies --   1475.2240              1482.8071              1497.9510
 Red. masses --      1.2415                 1.0456                 1.0560
 Frc consts  --      1.5919                 1.3545                 1.3961
 IR Inten    --     25.4018                 8.1981                 5.0134

                     19                     20                     21
                     A'                     A'                     A"
 Frequencies --   1681.0761              3049.6659              3117.2882
 Red. masses --     10.4152                 1.0301                 1.1063
 Frc consts  --     17.3418                 5.6448                 6.3339
 IR Inten    --    191.0987                25.3477                19.2108

                     22                     23                     24
                     A'                     A'                     A'
 Frequencies --   3155.8387              3173.5622              3293.0782
 Red. masses --      1.1054                 1.0506                 1.1217
 Frc consts  --      6.4863                 6.2342                 7.1670
 IR Inten    --     14.2675                 0.3623                 0.3522

 - Thermochemistry -
 -------------------
 Temperature   298.150 Kelvin.  Pressure   1.00000 Atm.
 Atom     1 has atomic number  6 and mass  12.00000

 Molecular mass:    73.02895 amu.
 Principal axes and moments of inertia in atomic units:
                           1         2         3
     Eigenvalues --   167.31266 411.55913 567.57948
           X            0.19144   0.98151   0.00000
           Y            0.98151  -0.19144   0.00000
           Z           -0.00000  -0.00000   1.00000
 This molecule is an asymmetric top.
 Rotational symmetry number  1.
 Rotational temperatures (Kelvin)      0.51768     0.21045     0.15260
 Rotational constants (GHZ):          10.78664     4.38513     3.17972
 Zero-point vibrational energy     199495.9 (Joules/Mol)
                                   47.68067 (Kcal/Mol)
 Warning -- explicit consideration of   5 degrees of freedom as
           vibrations may cause significant error
 Vibrational temperatures:    191.05   249.12   408.07   451.80   609.50
          (Kelvin)            898.12   943.42  1115.47  1223.40  1451.62
                             1545.03  1688.37  1743.93  1831.37  2090.09
                             2122.52  2133.43  2155.22  2418.69  4387.79
                             4485.08  4540.55  4566.05  4738.01

 Zero-point correction=                           0.075984 (Hartree/Particle)
 Thermal correction to Energy=                    0.081789
 Thermal correction to Enthalpy=                  0.082734
 Thermal correction to Gibbs Free Energy=         0.046683
 Sum of electronic and zero-point Energies=           -267.764017
 Sum of electronic and thermal Energies=              -267.758211
 Sum of electronic and thermal Enthalpies=            -267.757267
 Sum of electronic and thermal Free Energies=         -267.793317

                     E (Thermal)             CV                S
                      KCal/Mol        Cal/Mol-Kelvin    Cal/Mol-Kelvin
 Total                   51.324             19.306             75.874
 Electronic               0.000              0.000              1.377
 Translational            0.889              2.981             38.781
 Rotational               0.889              2.981             25.172
 Vibrational             49.546             13.344             10.543
 Vibration     1          0.613              1.921              2.905
 Vibration     2          0.627              1.876              2.401
 Vibration     3          0.682              1.704              1.512
 Vibration     4          0.702              1.647              1.341
 Vibration     5          0.786              1.419              0.880

 Optimization completed.
    -- Stationary point found.
 Normal termination of Gaussian 16 at Thu Sep 28 17:27:31 2023.
 Gaussian 16:  ES64L-G16RevB.01 20-Dec-2017

 ---------------------------------
 # rohf/gen geom=check guess=check
 ---------------------------------

 ---------------------------------------
 methoxycarbonylmethyl, ROHF/cc-pVTZ-F12
 ---------------------------------------
 Structure from the checkpoint file:  "meoacyl.chk"
 Charge =  0 Multiplicity = 2

                         Standard orientation:
 ---------------------------------------------------------------------
 Center     Atomic      Atomic             Coordinates (Angstroms)
 Number     Number       Type             X           Y           Z
 ---------------------------------------------------------------------
      1          6           0        0.000000    0.540976    0.000000
      2          8           0        0.580157   -0.686097    0.000000
      3          8           0       -1.204145    0.708779    0.000000
      4          6           0        0.977961    1.601713    0.000000
      5          6           0       -0.321810   -1.799525    0.000000
      6          1           0        0.305164   -2.685433    0.000000
      7          1           0       -0.954958   -1.780039    0.885666
      8          1           0       -0.954958   -1.780039   -0.885666
      9          1           0        0.625311    2.620143    0.000000
     10          1           0        2.034438    1.384935    0.000000
 ---------------------------------------------------------------------

 SCF Done:  E(ROHF) =  -266.322338306     A.U. after   15 cycles

 The electronic state is 2-A".
 Alpha  occ. eigenvalues --  -20.60194 -20.54124 -11.38293 -11.28411 -11.26205
 Alpha  occ. eigenvalues --   -1.45571  -1.35421  -1.02215  -0.93332  -0.77616
 Alpha  occ. eigenvalues --   -0.70102  -0.67962  -0.66865  -0.60675  -0.57939
 Alpha  occ. eigenvalues --   -0.54834  -0.53132  -0.46129  -0.45689  -0.10882
 Alpha virt. eigenvalues --    0.04303   0.04976   0.06677   0.06831   0.07739
 Alpha virt. eigenvalues --    0.08194   0.09296   0.11156   0.11614   0.11977
 Alpha virt. eigenvalues --    0.16084   0.17371   0.18297   0.18979   0.20818

 Mulliken charges and spin densities:
               1          2
     1  C    0.664000   0.059536
     2  O   -0.479566   0.009092
     3  O   -0.615184   0.047878
     4  C   -0.241009   0.846924
     5  C   -0.068661   0.000598
     6  H    0.131343   0.000018
     7  H    0.118999   0.000511
     8  H    0.118999   0.000511
     9  H    0.194832   0.016686
    10  H    0.176246   0.018246
 Sum of Mulliken charges =  -0.00000   1.00000

 Dipole moment (field-independent basis, Debye):
    X=              2.0568    Y=             -0.6170    Z=             -0.0000  Tot=              2.1474
 Quadrupole moment (field-independent basis, Debye-Ang):
   XX=            -32.6825   YY=            -24.1779   ZZ=            -29.7179
   XY=              4.8426   XZ=              0.0000   YZ=              0.0000

 Normal termination of Gaussian 16 at Thu Sep 28 17:30:48 2023.
