 Gaussian 16, Revision B.01,
 Gaussian 16:  ES64L-G16RevB.01 20-Dec-2017

 --------------------
 # b3lyp/gen opt freq
 --------------------

 -----------------------------
 methyl acetate, B3LYP/pcseg-2
 -----------------------------
 Symbolic Z-matrix:
 Charge =  0 Multiplicity = 1

 SCF Done:  E(RB3LYP) =  -268.505682071     A.U. after   13 cycles
 SCF Done:  E(RB3LYP) =  -268.505931651     A.U. after    9 cycles
 SCF Done:  E(RB3LYP) =  -268.505933820     A.U. after    7 cycles
 Optimization completed.
    -- Stationary point found.
 Normal termination of Gaussian 16 at Tue Feb  8 06:43:33 2022.

 ------------------------------------------------------------------
 #N Geom=AllCheck Guess=TCheck SCRF=Check GenChk RB3LYP/ChkBas Freq
 ------------------------------------------------------------------

 Structure from the checkpoint file:  "/wrk/irikura/Gau-24048.chk"
 -----------------------------
 methyl acetate, B3LYP/pcseg-2
 -----------------------------
 Charge =  0 Multiplicity = 1

                         Standard orientation:
 ---------------------------------------------------------------------
 Center     Atomic      Atomic             Coordinates (Angstroms)
 Number     Number       Type             X           Y           Z
 ---------------------------------------------------------------------
      1          6           0        1.127523    1.492058    0.000000
      2          6           0       -0.000000    0.495766    0.000000
      3          8           0       -1.173657    0.764945    0.000000
      4          8           0        0.470837   -0.769521    0.000000
      5          6           0       -0.519455   -1.809513    0.000000
      6          1           0        0.721696    2.498390    0.000000
      7          1           0        1.755628    1.343951    0.878099
      8          1           0        1.755628    1.343951   -0.878099
      9          1           0        0.036090   -2.741742    0.000000
     10          1           0       -1.147444   -1.738906    0.886037
     11          1           0       -1.147444   -1.738906   -0.886037
 ---------------------------------------------------------------------

 SCF Done:  E(RB3LYP) =  -268.505933820     A.U. after    1 cycles

 The electronic state is 1-A'.
 Alpha  occ. eigenvalues --  -19.17185 -19.11282 -10.30559 -10.22895 -10.18423
 Alpha  occ. eigenvalues --   -1.11074  -1.02352  -0.77525  -0.70828  -0.57392
 Alpha  occ. eigenvalues --   -0.50549  -0.49651  -0.48431  -0.43908  -0.42812
 Alpha  occ. eigenvalues --   -0.40921  -0.37899  -0.36667  -0.31513  -0.28496
 Alpha virt. eigenvalues --   -0.00004   0.01259   0.03048   0.07003   0.07087
 Alpha virt. eigenvalues --    0.07783   0.07907   0.09364   0.11447   0.15904
 Alpha virt. eigenvalues --    0.16546   0.17478   0.18514   0.22399   0.22635

 Mulliken charges:
               1
     1  C   -0.077882
     2  C    0.489222
     3  O   -0.436642
     4  O   -0.398411
     5  C    0.144847
     6  H    0.060999
     7  H    0.043269
     8  H    0.043269
     9  H    0.043123
    10  H    0.044104
    11  H    0.044104
 Sum of Mulliken charges =   0.00000

 Dipole moment (field-independent basis, Debye):
    X=              1.6547    Y=             -1.0085    Z=              0.0000  Tot=              1.9378
 Quadrupole moment (field-independent basis, Debye-Ang):
   XX=            -33.2084   YY=            -26.8568   ZZ=            -29.4564
   XY=              4.8071   XZ=              0.0000   YZ=              0.0000

  Exact polarizability:  46.205   2.671  51.343   0.000  -0.000  34.919
 Approx polarizability:  67.744  -3.676  62.310   0.000   0.000  49.108

                      1                      2                      3
                     A"                     A"                     A"
 Frequencies --     34.3828               129.3263               178.3611
 Red. masses --      1.0850                 1.0858                 2.8510
 Frc consts  --      0.0008                 0.0107                 0.0534
 IR Inten    --      0.1606                 0.4378                 6.8552

                      4                      5                      6
                     A'                     A'                     A"
 Frequencies --    281.3126               424.8995               611.2973
 Red. masses --      3.1551                 3.2286                 2.6154
 Frc consts  --      0.1471                 0.3434                 0.5758
 IR Inten    --     12.6409                 5.6643                 6.0385

                      7                      8                      9
                     A'                     A'                     A'
 Frequencies --    643.9482               855.1700               985.2507
 Red. masses --      4.4469                 3.8472                 2.3463
 Frc consts  --      1.0864                 1.6577                 1.3419
 IR Inten    --      5.0892                21.8993                 1.5520

                     10                     11                     12
                     A"                     A'                     A"
 Frequencies --   1068.6326              1071.5777              1174.9383
 Red. masses --      1.8070                 3.2281                 1.2821
 Frc consts  --      1.2158                 2.1839                 1.0428
 IR Inten    --      6.4188                80.8406                 1.3161

                     13                     14                     15
                     A'                     A'                     A'
 Frequencies --   1210.1536              1264.4597              1400.0829
 Red. masses --      1.4947                 3.9255                 1.3093
 Frc consts  --      1.2897                 3.6979                 1.5122
 IR Inten    --      0.9628               342.2227                40.3810

                     16                     17                     18
                     A'                     A'                     A"
 Frequencies --   1470.5640              1474.4178              1478.0425
 Red. masses --      1.0645                 1.1824                 1.0457
 Frc consts  --      1.3563                 1.5145                 1.3459
 IR Inten    --     12.4446                18.9286                 7.3010

                     19                     20                     21
                     A"                     A'                     A'
 Frequencies --   1484.7262              1499.1768              1792.6903
 Red. masses --      1.0455                 1.0491                10.5754
 Frc consts  --      1.3579                 1.3893                20.0244
 IR Inten    --      9.2936                 9.1196               272.3726

                     22                     23                     24
                     A'                     A'                     A"
 Frequencies --   3054.5388              3056.1962              3114.6745
 Red. masses --      1.0303                 1.0360                 1.0998
 Frc consts  --      5.6637                 5.7012                 6.2861
 IR Inten    --     22.4279                 8.2819                 4.5914

                     25                     26                     27
                     A"                     A'                     A'
 Frequencies --   3124.9286              3158.0745              3161.6680
 Red. masses --      1.1067                 1.1060                 1.1028
 Frc consts  --      6.3673                 6.4990                 6.4948
 IR Inten    --     19.1133                12.5886                 6.3673

 - Thermochemistry -
 -------------------
 Temperature   298.150 Kelvin.  Pressure   1.00000 Atm.
 Atom     1 has atomic number  6 and mass  12.00000

 Molecular mass:    74.03678 amu.
 Principal axes and moments of inertia in atomic units:
                           1         2         3
     Eigenvalues --   175.85816 435.01452 588.47073
           X            0.31726   0.94834   0.00000
           Y            0.94834  -0.31726   0.00000
           Z            0.00000  -0.00000   1.00000
 This molecule is an asymmetric top.
 Rotational symmetry number  1.
 Rotational temperatures (Kelvin)      0.49252     0.19911     0.14718
 Rotational constants (GHZ):          10.26248     4.14869     3.06683
 Zero-point vibrational energy     234489.0 (Joules/Mol)
                                   56.04420 (Kcal/Mol)
 Warning -- explicit consideration of   6 degrees of freedom as
           vibrations may cause significant error
 Vibrational temperatures:     49.47   186.07   256.62   404.75   611.34
          (Kelvin)            879.52   926.50  1230.40  1417.56  1537.52
                             1541.76  1690.47  1741.14  1819.28  2014.41
                             2115.81  2121.36  2126.57  2136.19  2156.98
                             2579.28  4394.80  4397.18  4481.32  4496.08
                             4543.76  4548.94

 Zero-point correction=                           0.089312 (Hartree/Particle)
 Thermal correction to Energy=                    0.095551
 Thermal correction to Enthalpy=                  0.096495
 Thermal correction to Gibbs Free Energy=         0.059047
 Sum of electronic and zero-point Energies=           -268.416622
 Sum of electronic and thermal Energies=              -268.410383
 Sum of electronic and thermal Enthalpies=            -268.409438
 Sum of electronic and thermal Free Energies=         -268.446886

                     E (Thermal)             CV                S
                      KCal/Mol        Cal/Mol-Kelvin    Cal/Mol-Kelvin
 Total                   59.959             19.499             78.816
 Electronic               0.000              0.000              0.000
 Translational            0.889              2.981             38.822
 Rotational               0.889              2.981             25.313
 Vibrational             58.182             13.538             14.681
 Vibration     1          0.594              1.983              5.559
 Vibration     2          0.612              1.924              2.956
 Vibration     3          0.629              1.869              2.345
 Vibration     4          0.681              1.708              1.526
 Vibration     5          0.787              1.416              0.875
 Vibration     6          0.970              1.008              0.431

 Optimization completed.
    -- Stationary point found.
 Normal termination of Gaussian 16 at Tue Feb  8 06:47:55 2022.
