 Gaussian 16, Revision B.01,

 ---------------------------------------
 # b3lyp/gen opt freq CPHF(Grid=OneStep)
 ---------------------------------------

 -----------------------------
 methyl acetate, B3LYP/pcseg-2
 -----------------------------
 Symbolic Z-matrix:
 Charge =  0 Multiplicity = 1

 SCF Done:  E(RB3LYP) =  -268.505933820     A.U. after   13 cycles
 Optimization completed.
    -- Stationary point found.
 Normal termination of Gaussian 16 at Fri Sep 29 06:42:08 2023.

 ------------------------------------------------------------------
 #N Geom=AllCheck Guess=TCheck SCRF=Check GenChk RB3LYP/ChkBas Freq
 ------------------------------------------------------------------

 Structure from the checkpoint file:  "meoac.chk"
 -----------------------------
 methyl acetate, B3LYP/pcseg-2
 -----------------------------
 Charge =  0 Multiplicity = 1

 SCF Done:  E(RB3LYP) =  -268.505933820     A.U. after    1 cycles

  Exact polarizability:  46.205   2.671  51.343   0.000  -0.000  34.919
 Approx polarizability:  67.743  -3.676  62.310  -0.000  -0.000  49.108

                      1                      2                      3
                     A"                     A"                     A"
 Frequencies --     34.3511               129.3307               178.3561
 Red. masses --      1.0850                 1.0858                 2.8510
 Frc consts  --      0.0008                 0.0107                 0.0534
 IR Inten    --      0.1606                 0.4378                 6.8555

                      4                      5                      6
                     A'                     A'                     A"
 Frequencies --    281.3109               424.8979               611.2959
 Red. masses --      3.1551                 3.2286                 2.6154
 Frc consts  --      0.1471                 0.3434                 0.5758
 IR Inten    --     12.6411                 5.6642                 6.0387

                      7                      8                      9
                     A'                     A'                     A'
 Frequencies --    643.9481               855.1726               985.2498
 Red. masses --      4.4468                 3.8472                 2.3463
 Frc consts  --      1.0864                 1.6577                 1.3419
 IR Inten    --      5.0897                21.8985                 1.5518

                     10                     11                     12
                     A"                     A'                     A"
 Frequencies --   1068.6333              1071.5773              1174.9378
 Red. masses --      1.8070                 3.2282                 1.2821
 Frc consts  --      1.2158                 2.1840                 1.0428
 IR Inten    --      6.4190                80.8371                 1.3160

                     13                     14                     15
                     A'                     A'                     A'
 Frequencies --   1210.1576              1264.4597              1400.0812
 Red. masses --      1.4947                 3.9255                 1.3093
 Frc consts  --      1.2897                 3.6979                 1.5122
 IR Inten    --      0.9628               342.2288                40.3825

                     16                     17                     18
                     A'                     A'                     A"
 Frequencies --   1470.5623              1474.4189              1478.0417
 Red. masses --      1.0644                 1.1825                 1.0457
 Frc consts  --      1.3562                 1.5146                 1.3459
 IR Inten    --     12.4476                18.9218                 7.3010

                     19                     20                     21
                     A"                     A'                     A'
 Frequencies --   1484.7280              1499.1789              1792.6939
 Red. masses --      1.0455                 1.0491                10.5755
 Frc consts  --      1.3579                 1.3893                20.0245
 IR Inten    --      9.2933                 9.1192               272.3668

                     22                     23                     24
                     A'                     A'                     A"
 Frequencies --   3054.5411              3056.1968              3114.6771
 Red. masses --      1.0303                 1.0360                 1.0998
 Frc consts  --      5.6637                 5.7012                 6.2861
 IR Inten    --     22.4220                 8.2902                 4.5916

                     25                     26                     27
                     A"                     A'                     A'
 Frequencies --   3124.9265              3158.0805              3161.6652
 Red. masses --      1.1067                 1.1060                 1.1028
 Frc consts  --      6.3673                 6.4990                 6.4948
 IR Inten    --     19.1133                12.5842                 6.3697

 - Thermochemistry -
 -------------------
 Temperature   298.150 Kelvin.  Pressure   1.00000 Atm.
 Atom     1 has atomic number  6 and mass  12.00000

 Molecular mass:    74.03678 amu.
 Principal axes and moments of inertia in atomic units:
                           1         2         3
     Eigenvalues --   175.85806 435.01460 588.47072
           X            0.31726   0.94834   0.00000
           Y            0.94834  -0.31726   0.00000
           Z            0.00000  -0.00000   1.00000
 This molecule is an asymmetric top.
 Rotational symmetry number  1.
 Rotational temperatures (Kelvin)      0.49252     0.19911     0.14718
 Rotational constants (GHZ):          10.26249     4.14869     3.06683
 Zero-point vibrational energy     234488.8 (Joules/Mol)
                                   56.04418 (Kcal/Mol)
 Warning -- explicit consideration of   6 degrees of freedom as
           vibrations may cause significant error
 Vibrational temperatures:     49.42   186.08   256.61   404.74   611.33
          (Kelvin)            879.52   926.50  1230.40  1417.55  1537.53
                             1541.76  1690.47  1741.15  1819.28  2014.40
                             2115.81  2121.36  2126.57  2136.19  2156.98
                             2579.29  4394.80  4397.19  4481.33  4496.07
                             4543.77  4548.93

 Zero-point correction=                           0.089312 (Hartree/Particle)
 Thermal correction to Energy=                    0.095551
 Thermal correction to Enthalpy=                  0.096495
 Thermal correction to Gibbs Free Energy=         0.059047
 Sum of electronic and zero-point Energies=           -268.416622
 Sum of electronic and thermal Energies=              -268.410383
 Sum of electronic and thermal Enthalpies=            -268.409438
 Sum of electronic and thermal Free Energies=         -268.446887

                     E (Thermal)             CV                S
                      KCal/Mol        Cal/Mol-Kelvin    Cal/Mol-Kelvin
 Total                   59.959             19.500             78.818
 Electronic               0.000              0.000              0.000
 Translational            0.889              2.981             38.822
 Rotational               0.889              2.981             25.313
 Vibrational             58.182             13.538             14.683
 Vibration     1          0.594              1.983              5.561
 Vibration     2          0.612              1.924              2.956
 Vibration     3          0.629              1.869              2.346
 Vibration     4          0.681              1.708              1.526
 Vibration     5          0.787              1.416              0.875
 Vibration     6          0.970              1.008              0.431

 Optimization completed.
    -- Stationary point found.
 Normal termination of Gaussian 16 at Fri Sep 29 06:48:40 2023.
 Gaussian 16:  ES64L-G16RevB.01 20-Dec-2017

 ---------------------------------
 # rohf/gen geom=check guess=check
 ---------------------------------

 --------------------------------
 methyl acetate, ROHF/cc-pVTZ-F12
 --------------------------------
 Structure from the checkpoint file:  "meoac.chk"
 Charge =  0 Multiplicity = 1

                         Standard orientation:
 ---------------------------------------------------------------------
 Center     Atomic      Atomic             Coordinates (Angstroms)
 Number     Number       Type             X           Y           Z
 ---------------------------------------------------------------------
      1          6           0        1.127523    1.492058    0.000000
      2          6           0        0.000000    0.495766    0.000000
      3          8           0       -1.173657    0.764945    0.000000
      4          8           0        0.470837   -0.769521    0.000000
      5          6           0       -0.519455   -1.809513    0.000000
      6          1           0        0.721696    2.498390    0.000000
      7          1           0        1.755628    1.343951    0.878099
      8          1           0        1.755628    1.343951   -0.878099
      9          1           0        0.036090   -2.741742    0.000000
     10          1           0       -1.147444   -1.738906    0.886037
     11          1           0       -1.147444   -1.738906   -0.886037
 ---------------------------------------------------------------------

 SCF Done:  E(ROHF) =  -266.956070379     A.U. after   12 cycles

 The electronic state is 1-A'.
 Alpha  occ. eigenvalues --  -20.60032 -20.54186 -11.37880 -11.28414 -11.23963
 Alpha  occ. eigenvalues --   -1.45891  -1.35861  -1.03432  -0.94887  -0.77769
 Alpha  occ. eigenvalues --   -0.69501  -0.67657  -0.67637  -0.59447  -0.59265
 Alpha  occ. eigenvalues --   -0.56035  -0.52882  -0.52431  -0.46383  -0.45008
 Alpha virt. eigenvalues --    0.04310   0.04931   0.06465   0.06916   0.07567
 Alpha virt. eigenvalues --    0.08447   0.08796   0.11190   0.11391   0.11779
 Alpha virt. eigenvalues --    0.15649   0.17240   0.17434   0.18021   0.18524

 Mulliken charges and spin densities:
               1          2
     1  C   -0.279396   0.000000
     2  C    0.705067   0.000000
     3  O   -0.608621   0.000000
     4  O   -0.499279   0.000000
     5  C   -0.067838   0.000000
     6  H    0.153707   0.000000
     7  H    0.111534   0.000000
     8  H    0.111534   0.000000
     9  H    0.134538   0.000000
    10  H    0.119376   0.000000
    11  H    0.119376   0.000000
 Sum of Mulliken charges =  -0.00000   0.00000

 Dipole moment (field-independent basis, Debye):
    X=              1.8419    Y=             -0.9472    Z=             -0.0000  Tot=              2.0711
 Quadrupole moment (field-independent basis, Debye-Ang):
   XX=            -33.0994   YY=            -26.5378   ZZ=            -29.2406
   XY=              5.2137   XZ=              0.0000   YZ=              0.0000

 Normal termination of Gaussian 16 at Fri Sep 29 06:51:25 2023.
