 Gaussian 16, Revision B.01,
 Gaussian 16:  ES64L-G16RevB.01 20-Dec-2017

 --------------------
 # b3lyp/gen opt freq
 --------------------

 ------------------------------------
 methoxycarbonylmethyl, B3LYP/pcseg-2
 ------------------------------------
 Symbolic Z-matrix:
 Charge =  0 Multiplicity = 2

 SCF Done:  E(UB3LYP) =  -267.839891430     A.U. after   16 cycles
 SCF Done:  E(UB3LYP) =  -267.839994344     A.U. after   11 cycles
 SCF Done:  E(UB3LYP) =  -267.840000039     A.U. after    7 cycles
 SCF Done:  E(UB3LYP) =  -267.840000714     A.U. after    8 cycles
 Optimization completed.
    -- Stationary point found.
 Normal termination of Gaussian 16 at Wed Sep 13 10:03:32 2023.

 ------------------------------------------------------------------
 #N Geom=AllCheck Guess=TCheck SCRF=Check GenChk UB3LYP/ChkBas Freq
 ------------------------------------------------------------------

 Structure from the checkpoint file:  "/wrk/irikura/Gau-446600.chk"
 ------------------------------------
 methoxycarbonylmethyl, B3LYP/pcseg-2
 ------------------------------------
 Charge =  0 Multiplicity = 2

                         Standard orientation:
 ---------------------------------------------------------------------
 Center     Atomic      Atomic             Coordinates (Angstroms)
 Number     Number       Type             X           Y           Z
 ---------------------------------------------------------------------
      1          6           0        0.000000    0.540976    0.000000
      2          8           0        0.580158   -0.686097    0.000000
      3          8           0       -1.204145    0.708778    0.000000
      4          6           0        0.977960    1.601713    0.000000
      5          6           0       -0.321809   -1.799525    0.000000
      6          1           0        0.305166   -2.685433    0.000000
      7          1           0       -0.954957   -1.780039    0.885666
      8          1           0       -0.954957   -1.780039   -0.885666
      9          1           0        0.625310    2.620143    0.000000
     10          1           0        2.034438    1.384936    0.000000
 ---------------------------------------------------------------------

 SCF Done:  E(UB3LYP) =  -267.840000714     A.U. after    1 cycles

 The electronic state is 2-A".
 Alpha  occ. eigenvalues --  -19.17261 -19.11778 -10.30517 -10.22925 -10.22008
 Alpha  occ. eigenvalues --   -1.11050  -1.02532  -0.78318  -0.70696  -0.57635
 Alpha  occ. eigenvalues --   -0.51853  -0.49318  -0.49299  -0.44358  -0.42701
 Alpha  occ. eigenvalues --   -0.41624  -0.37012  -0.32168  -0.29308  -0.26715
 Alpha virt. eigenvalues --    0.01903   0.02707   0.03243   0.06400   0.07327
 Alpha virt. eigenvalues --    0.07680   0.08337   0.12764   0.15824   0.15851
 Alpha virt. eigenvalues --    0.17497   0.18247   0.22114   0.23603   0.24846

  Beta  occ. eigenvalues --  -19.17161 -19.11296 -10.30660 -10.22929 -10.20699
  Beta  occ. eigenvalues --   -1.10729  -1.01845  -0.76611  -0.69260  -0.57250
  Beta  occ. eigenvalues --   -0.51191  -0.48847  -0.48752  -0.43772  -0.42326
  Beta  occ. eigenvalues --   -0.40220  -0.36839  -0.30764  -0.28768
  Beta virt. eigenvalues --   -0.13294   0.01988   0.03482   0.04707   0.06455
  Beta virt. eigenvalues --    0.07368   0.07721   0.08355   0.12834   0.15903
  Beta virt. eigenvalues --    0.16708   0.18142   0.19908   0.22239   0.24573

 Mulliken charges and spin densities:
               1          2
     1  C    0.523900  -0.073544
     2  O   -0.401404   0.028181
     3  O   -0.445254   0.168130
     4  C   -0.123386   0.943660
     5  C    0.147368  -0.003559
     6  H    0.043452   0.000061
     7  H    0.044484   0.002421
     8  H    0.044484   0.002421
     9  H    0.087335  -0.034516
    10  H    0.079021  -0.033256
 Sum of Mulliken charges =   0.00000   1.00000

 Dipole moment (field-independent basis, Debye):
    X=              1.7900    Y=             -0.7103    Z=             -0.0000  Tot=              1.9258
 Quadrupole moment (field-independent basis, Debye-Ang):
   XX=            -32.6552   YY=            -24.5455   ZZ=            -29.9342
   XY=              4.4143   XZ=              0.0000   YZ=             -0.0000

  Exact polarizability:  46.551   3.847  53.590   0.000  -0.000  31.364
 Approx polarizability:  71.073  -0.334  63.813  -0.000  -0.000  43.456

                      1                      2                      3
                     A"                     A"                     A'
 Frequencies --    132.7724               173.1338               283.6234
 Red. masses --      1.1019                 3.0208                 3.1720
 Frc consts  --      0.0114                 0.0534                 0.1503
 IR Inten    --      1.0398                 8.4196                13.3873

                      4                      5                      6
                     A"                     A'                     A"
 Frequencies --    313.7446               423.6194               624.1672
 Red. masses --      1.0497                 2.9773                 1.7964
 Frc consts  --      0.0609                 0.3148                 0.4123
 IR Inten    --      0.0006                 5.9121                 4.4423

                      7                      8                      9
                     A'                     A"                     A'
 Frequencies --    655.7058               775.2953               850.3046
 Red. masses --      4.9123                 3.0418                 3.3199
 Frc consts  --      1.2444                 1.0773                 1.4142
 IR Inten    --      3.7018                45.7991                27.3430

                     10                     11                     12
                     A'                     A'                     A"
 Frequencies --   1008.9270              1073.8504              1173.4727
 Red. masses --      1.9561                 5.3632                 1.2817
 Frc consts  --      1.1732                 3.6439                 1.0399
 IR Inten    --      2.5953                84.1065                 1.0843

                     13                     14                     15
                     A'                     A'                     A'
 Frequencies --   1212.0874              1272.8654              1452.6836
 Red. masses --      1.5028                 3.9921                 1.2118
 Frc consts  --      1.3008                 3.8108                 1.5066
 IR Inten    --     12.3516               294.1293                22.9731

                     16                     17                     18
                     A'                     A"                     A'
 Frequencies --   1475.2201              1482.8014              1497.9457
 Red. masses --      1.2415                 1.0456                 1.0560
 Frc consts  --      1.5919                 1.3545                 1.3961
 IR Inten    --     25.4141                 8.1986                 5.0140

                     19                     20                     21
                     A'                     A'                     A"
 Frequencies --   1681.0680              3049.6578              3117.2855
 Red. masses --     10.4144                 1.0301                 1.1063
 Frc consts  --     17.3403                 5.6448                 6.3338
 IR Inten    --    191.0887                25.3383                19.2108

                     22                     23                     24
                     A'                     A'                     A'
 Frequencies --   3155.8359              3173.5620              3293.0757
 Red. masses --      1.1054                 1.0506                 1.1217
 Frc consts  --      6.4863                 6.2342                 7.1670
 IR Inten    --     14.2740                 0.3619                 0.3522

 - Thermochemistry -
 -------------------
 Temperature   298.150 Kelvin.  Pressure   1.00000 Atm.
 Atom     1 has atomic number  6 and mass  12.00000

 Molecular mass:    73.02895 amu.
 Principal axes and moments of inertia in atomic units:
                           1         2         3
     Eigenvalues --   167.31267 411.55916 567.57952
           X            0.19144   0.98151   0.00000
           Y            0.98151  -0.19144   0.00000
           Z            0.00000  -0.00000   1.00000
 This molecule is an asymmetric top.
 Rotational symmetry number  1.
 Rotational temperatures (Kelvin)      0.51768     0.21045     0.15260
 Rotational constants (GHZ):          10.78664     4.38513     3.17972
 Zero-point vibrational energy     199493.5 (Joules/Mol)
                                   47.68009 (Kcal/Mol)
 Warning -- explicit consideration of   5 degrees of freedom as
           vibrations may cause significant error
 Vibrational temperatures:    191.03   249.10   408.07   451.41   609.49
          (Kelvin)            898.04   943.41  1115.48  1223.40  1451.62
                             1545.03  1688.37  1743.92  1831.37  2090.09
                             2122.51  2133.42  2155.21  2418.68  4387.78
                             4485.08  4540.54  4566.05  4738.00

 Zero-point correction=                           0.075983 (Hartree/Particle)
 Thermal correction to Energy=                    0.081789
 Thermal correction to Enthalpy=                  0.082733
 Thermal correction to Gibbs Free Energy=         0.046682
 Sum of electronic and zero-point Energies=           -267.764018
 Sum of electronic and thermal Energies=              -267.758212
 Sum of electronic and thermal Enthalpies=            -267.757268
 Sum of electronic and thermal Free Energies=         -267.793319

                     E (Thermal)             CV                S
                      KCal/Mol        Cal/Mol-Kelvin    Cal/Mol-Kelvin
 Total                   51.323             19.306             75.876
 Electronic               0.000              0.000              1.377
 Translational            0.889              2.981             38.781
 Rotational               0.889              2.981             25.172
 Vibrational             49.546             13.345             10.545
 Vibration     1          0.613              1.921              2.905
 Vibration     2          0.627              1.876              2.401
 Vibration     3          0.682              1.704              1.512
 Vibration     4          0.702              1.647              1.343
 Vibration     5          0.786              1.419              0.880

 Optimization completed.
    -- Stationary point found.
 Normal termination of Gaussian 16 at Wed Sep 13 10:08:35 2023.
