 Gaussian 16, Revision B.01,

 ---------------------------------------
 # b3lyp/gen opt freq CPHF(Grid=OneStep)
 ---------------------------------------

 ---------------------------------
 methyl vinyl ether, B3LYP/pcseg-2
 ---------------------------------
 Symbolic Z-matrix:
 Charge =  0 Multiplicity = 1

 SCF Done:  E(RB3LYP) =  -193.200968471     A.U. after   12 cycles
 Optimization completed.
    -- Stationary point found.
 Normal termination of Gaussian 16 at Fri Sep 29 19:44:16 2023.

 ------------------------------------------------------------------
 #N Geom=AllCheck Guess=TCheck SCRF=Check GenChk RB3LYP/ChkBas Freq
 ------------------------------------------------------------------

 Structure from the checkpoint file:  "meoc2h3.chk"
 ---------------------------------
 methyl vinyl ether, B3LYP/pcseg-2
 ---------------------------------
 Charge =  0 Multiplicity = 1

 SCF Done:  E(RB3LYP) =  -193.200968471     A.U. after    1 cycles

  Exact polarizability:  44.094   4.317  49.885  -0.000   0.000  32.589
 Approx polarizability:  54.951   1.421  76.605   0.000  -0.000  44.955

                      1                      2                      3
                     A"                     A"                     A'
 Frequencies --    234.4082               251.1287               318.3205
 Red. masses --      1.0932                 1.7588                 2.6608
 Frc consts  --      0.0354                 0.0654                 0.1589
 IR Inten    --      0.9184                 5.6639                 3.3974

                      4                      5                      6
                     A'                     A"                     A"
 Frequencies --    597.2548               720.3641               843.9345
 Red. masses --      2.1557                 1.4966                 1.3573
 Frc consts  --      0.4531                 0.4576                 0.5696
 IR Inten    --      2.3145                 2.6337                72.2736

                      7                      8                      9
                     A'                     A"                     A'
 Frequencies --    907.9568               999.2889              1027.4020
 Red. masses --      3.1972                 1.1560                 2.2092
 Frc consts  --      1.5529                 0.6802                 1.3739
 IR Inten    --     37.1090                17.5045                30.7540

                     10                     11                     12
                     A"                     A'                     A'
 Frequencies --   1174.3978              1217.6351              1244.2362
 Red. masses --      1.2834                 1.5313                 3.4268
 Frc consts  --      1.0429                 1.3377                 3.1257
 IR Inten    --      1.6469                 4.3159               153.5087

                     13                     14                     15
                     A'                     A'                     A'
 Frequencies --   1356.7841              1433.8966              1482.2253
 Red. masses --      1.2475                 1.1673                 1.1698
 Frc consts  --      1.3530                 1.4140                 1.5142
 IR Inten    --     36.5518                 4.4878                 3.0141

                     16                     17                     18
                     A"                     A'                     A'
 Frequencies --   1488.8819              1506.1616              1680.1251
 Red. masses --      1.0458                 1.0500                 4.0813
 Frc consts  --      1.3660                 1.4034                 6.7879
 IR Inten    --      8.7462                14.4731               165.0112

                     19                     20                     21
                     A'                     A"                     A'
 Frequencies --   3011.7133              3067.7638              3139.4069
 Red. masses --      1.0340                 1.1055                 1.0998
 Frc consts  --      5.5258                 6.1300                 6.3867
 IR Inten    --     35.5337                36.7461                17.3745

                     22                     23                     24
                     A'                     A'                     A'
 Frequencies --   3173.3370              3188.1480              3258.3974
 Red. masses --      1.0585                 1.0934                 1.1159
 Frc consts  --      6.2800                 6.5480                 6.9802
 IR Inten    --      3.7072                 6.2494                 7.6955

 - Thermochemistry -
 -------------------
 Temperature   298.150 Kelvin.  Pressure   1.00000 Atm.
 Atom     1 has atomic number  8 and mass  15.99491

 Molecular mass:    58.04186 amu.
 Principal axes and moments of inertia in atomic units:
                           1         2         3
     Eigenvalues --    97.19930 285.41223 371.19733
           X            0.74058  -0.67197   0.00000
           Y            0.67197   0.74058   0.00000
           Z            0.00000   0.00000   1.00000
 This molecule is an asymmetric top.
 Rotational symmetry number  1.
 Rotational temperatures (Kelvin)      0.89110     0.30347     0.23334
 Rotational constants (GHZ):          18.56743     6.32328     4.86195
 Zero-point vibrational energy     223242.1 (Joules/Mol)
                                   53.35615 (Kcal/Mol)
 Warning -- explicit consideration of   4 degrees of freedom as
           vibrations may cause significant error
 Vibrational temperatures:    337.26   361.32   457.99   859.32  1036.44
          (Kelvin)           1214.23  1306.35  1437.75  1478.20  1689.70
                             1751.91  1790.18  1952.11  2063.06  2132.59
                             2142.17  2167.03  2417.33  4333.18  4413.83
                             4516.91  4565.72  4587.03  4688.11

 Zero-point correction=                           0.085028 (Hartree/Particle)
 Thermal correction to Energy=                    0.089789
 Thermal correction to Enthalpy=                  0.090733
 Thermal correction to Gibbs Free Energy=         0.058304
 Sum of electronic and zero-point Energies=           -193.115940
 Sum of electronic and thermal Energies=              -193.111180
 Sum of electronic and thermal Enthalpies=            -193.110235
 Sum of electronic and thermal Free Energies=         -193.142664

                     E (Thermal)             CV                S
                      KCal/Mol        Cal/Mol-Kelvin    Cal/Mol-Kelvin
 Total                   56.343             15.855             68.252
 Electronic               0.000              0.000              0.000
 Translational            0.889              2.981             38.096
 Rotational               0.889              2.981             23.847
 Vibrational             54.566              9.894              6.309
 Vibration     1          0.654              1.788              1.845
 Vibration     2          0.663              1.761              1.723
 Vibration     3          0.705              1.639              1.319
 Vibration     4          0.955              1.038              0.454

 Optimization completed.
    -- Stationary point found.
 Normal termination of Gaussian 16 at Fri Sep 29 19:48:32 2023.
 Gaussian 16:  ES64L-G16RevB.01 20-Dec-2017

 ---------------------------------
 # rohf/gen geom=check guess=check
 ---------------------------------

 ------------------------------------
 methyl vinyl ether, ROHF/cc-pVTZ-F12
 ------------------------------------
 Structure from the checkpoint file:  "meoc2h3.chk"
 Charge =  0 Multiplicity = 1

                         Standard orientation:
 ---------------------------------------------------------------------
 Center     Atomic      Atomic             Coordinates (Angstroms)
 Number     Number       Type             X           Y           Z
 ---------------------------------------------------------------------
      1          8           0        0.000000    0.930752    0.000000
      2          6           0       -0.931314   -0.050490    0.000000
      3          6           0        1.362277    0.532541    0.000000
      4          6           0       -0.740021   -1.367957    0.000000
      5          1           0       -1.922574    0.383264    0.000000
      6          1           0       -1.601103   -2.017915    0.000000
      7          1           0        0.233987   -1.831815    0.000000
      8          1           0        1.948332    1.446880    0.000000
      9          1           0        1.597853   -0.055498    0.890433
     10          1           0        1.597853   -0.055498   -0.890433
 ---------------------------------------------------------------------

 SCF Done:  E(ROHF) =  -192.004576126     A.U. after   11 cycles

 The electronic state is 1-A'.
 Alpha  occ. eigenvalues --  -20.58419 -11.29296 -11.28053 -11.21021  -1.40977
 Alpha  occ. eigenvalues --   -1.03131  -0.95298  -0.77772  -0.69870  -0.65582
 Alpha  occ. eigenvalues --   -0.65212  -0.57500  -0.53458  -0.50343  -0.50336
 Alpha  occ. eigenvalues --   -0.34653
 Alpha virt. eigenvalues --    0.04781   0.05288   0.05692   0.07167   0.08278
 Alpha virt. eigenvalues --    0.09091   0.09698   0.10344   0.10549   0.11576
 Alpha virt. eigenvalues --    0.16745   0.18673   0.19076   0.19394   0.22403

 Mulliken charges and spin densities:
               1          2
     1  O   -0.443270   0.000000
     2  C    0.059466   0.000000
     3  C   -0.120446   0.000000
     4  C   -0.351918   0.000000
     5  H    0.192613   0.000000
     6  H    0.157354   0.000000
     7  H    0.143441   0.000000
     8  H    0.145735   0.000000
     9  H    0.108513   0.000000
    10  H    0.108513   0.000000
 Sum of Mulliken charges =  -0.00000   0.00000

 Dipole moment (field-independent basis, Debye):
    X=              0.8856    Y=             -0.4955    Z=             -0.0000  Tot=              1.0148
 Quadrupole moment (field-independent basis, Debye-Ang):
   XX=            -21.3018   YY=            -26.3322   ZZ=            -27.4338
   XY=              0.3406   XZ=              0.0000   YZ=              0.0000

 Normal termination of Gaussian 16 at Fri Sep 29 19:50:12 2023.
