 Gaussian 16, Revision B.01,
 Gaussian 16:  ES64L-G16RevB.01 20-Dec-2017

 --------------------
 # b3lyp/gen opt freq
 --------------------

 ---------------------------------
 methyl vinyl ether, B3LYP/pcseg-2
 ---------------------------------
 Symbolic Z-matrix:
 Charge =  0 Multiplicity = 1

 SCF Done:  E(RB3LYP) =  -193.200868695     A.U. after   12 cycles
 SCF Done:  E(RB3LYP) =  -193.200964113     A.U. after    8 cycles
 SCF Done:  E(RB3LYP) =  -193.200967883     A.U. after    8 cycles
 SCF Done:  E(RB3LYP) =  -193.200968471     A.U. after    6 cycles
 Optimization completed.
    -- Stationary point found.
 Normal termination of Gaussian 16 at Mon Jun 20 11:16:08 2022.

 ------------------------------------------------------------------
 #N Geom=AllCheck Guess=TCheck SCRF=Check GenChk RB3LYP/ChkBas Freq
 ------------------------------------------------------------------

 Structure from the checkpoint file:  "/wrk/irikura/Gau-12632.chk"
 ---------------------------------
 methyl vinyl ether, B3LYP/pcseg-2
 ---------------------------------
 Charge =  0 Multiplicity = 1

                         Standard orientation:
 ---------------------------------------------------------------------
 Center     Atomic      Atomic             Coordinates (Angstroms)
 Number     Number       Type             X           Y           Z
 ---------------------------------------------------------------------
      1          8           0        0.000000   -0.930752    0.000000
      2          6           0        0.931314    0.050490    0.000000
      3          6           0       -1.362277   -0.532541    0.000000
      4          6           0        0.740021    1.367957    0.000000
      5          1           0        1.922574   -0.383264    0.000000
      6          1           0        1.601103    2.017915    0.000000
      7          1           0       -0.233987    1.831815    0.000000
      8          1           0       -1.948332   -1.446880    0.000000
      9          1           0       -1.597853    0.055498    0.890433
     10          1           0       -1.597853    0.055498   -0.890433
 ---------------------------------------------------------------------

 SCF Done:  E(RB3LYP) =  -193.200968471     A.U. after    1 cycles

 The electronic state is 1-A'.
 Alpha  occ. eigenvalues --  -19.15893 -10.22875 -10.22627 -10.15582  -1.07163
 Alpha  occ. eigenvalues --   -0.76655  -0.71068  -0.57643  -0.51823  -0.48312
 Alpha  occ. eigenvalues --   -0.47316  -0.41946  -0.38554  -0.35390  -0.34522
 Alpha  occ. eigenvalues --   -0.24034
 Alpha virt. eigenvalues --    0.01773   0.01940   0.03889   0.05250   0.07290
 Alpha virt. eigenvalues --    0.07888   0.08058   0.10574   0.15150   0.17014
 Alpha virt. eigenvalues --    0.18285   0.18748   0.21912   0.24605   0.26655

 Mulliken charges:
               1
     1  O   -0.398804
     2  C    0.206390
     3  C    0.127685
     4  C   -0.205832
     5  H    0.048273
     6  H    0.046025
     7  H    0.054958
     8  H    0.052793
     9  H    0.034255
    10  H    0.034255
 Sum of Mulliken charges =  -0.00000

 Dipole moment (field-independent basis, Debye):
    X=             -0.9190    Y=              0.3493    Z=              0.0000  Tot=              0.9832
 Quadrupole moment (field-independent basis, Debye-Ang):
   XX=            -21.5671   YY=            -26.5098   ZZ=            -27.4338
   XY=              0.4617   XZ=              0.0000   YZ=              0.0000

  Exact polarizability:  44.094   4.317  49.885  -0.000  -0.000  32.587
 Approx polarizability:  54.951   1.421  76.605  -0.000   0.000  44.955

                      1                      2                      3
                     A"                     A"                     A'
 Frequencies --    234.4034               251.1168               318.3205
 Red. masses --      1.0932                 1.7588                 2.6608
 Frc consts  --      0.0354                 0.0653                 0.1589
 IR Inten    --      0.9182                 5.6670                 3.3971

                      4                      5                      6
                     A'                     A"                     A"
 Frequencies --    597.2564               720.3579               843.9350
 Red. masses --      2.1557                 1.4966                 1.3573
 Frc consts  --      0.4531                 0.4576                 0.5696
 IR Inten    --      2.3147                 2.6356                72.2724

                      7                      8                      9
                     A'                     A"                     A'
 Frequencies --    907.9560               999.2933              1027.4008
 Red. masses --      3.1971                 1.1560                 2.2092
 Frc consts  --      1.5529                 0.6802                 1.3739
 IR Inten    --     37.1098                17.5010                30.7534

                     10                     11                     12
                     A"                     A'                     A'
 Frequencies --   1174.3990              1217.6345              1244.2343
 Red. masses --      1.2834                 1.5314                 3.4265
 Frc consts  --      1.0429                 1.3377                 3.1254
 IR Inten    --      1.6472                 4.3203               153.5141

                     13                     14                     15
                     A'                     A'                     A'
 Frequencies --   1356.7861              1433.9016              1482.2258
 Red. masses --      1.2475                 1.1673                 1.1698
 Frc consts  --      1.3530                 1.4140                 1.5142
 IR Inten    --     36.5536                 4.4916                 3.0141

                     16                     17                     18
                     A"                     A'                     A'
 Frequencies --   1488.8741              1506.1680              1680.1375
 Red. masses --      1.0458                 1.0500                 4.0813
 Frc consts  --      1.3660                 1.4034                 6.7879
 IR Inten    --      8.7462                14.4675               165.0047

                     19                     20                     21
                     A'                     A"                     A'
 Frequencies --   3011.7092              3067.7479              3139.4081
 Red. masses --      1.0340                 1.1055                 1.0998
 Frc consts  --      5.5258                 6.1299                 6.3867
 IR Inten    --     35.5311                36.7441                17.3766

                     22                     23                     24
                     A'                     A'                     A'
 Frequencies --   3173.3387              3188.1474              3258.4013
 Red. masses --      1.0585                 1.0934                 1.1159
 Frc consts  --      6.2800                 6.5480                 6.9802
 IR Inten    --      3.7074                 6.2498                 7.6932

 - Thermochemistry -
 -------------------
 Temperature   298.150 Kelvin.  Pressure   1.00000 Atm.
 Atom     1 has atomic number  8 and mass  15.99491

 Molecular mass:    58.04186 amu.
 Principal axes and moments of inertia in atomic units:
                           1         2         3
     Eigenvalues --    97.19927 285.41230 371.19737
           X            0.74058  -0.67197   0.00000
           Y            0.67197   0.74058   0.00000
           Z            0.00000   0.00000   1.00000
 This molecule is an asymmetric top.
 Rotational symmetry number  1.
 Rotational temperatures (Kelvin)      0.89110     0.30347     0.23334
 Rotational constants (GHZ):          18.56744     6.32328     4.86195
 Zero-point vibrational energy     223242.0 (Joules/Mol)
                                   53.35613 (Kcal/Mol)
 Warning -- explicit consideration of   4 degrees of freedom as
           vibrations may cause significant error
 Vibrational temperatures:    337.25   361.30   457.99   859.32  1036.43
          (Kelvin)           1214.23  1306.35  1437.76  1478.20  1689.70
                             1751.90  1790.18  1952.11  2063.06  2132.59
                             2142.16  2167.04  2417.34  4333.18  4413.80
                             4516.91  4565.73  4587.03  4688.11

 Zero-point correction=                           0.085028 (Hartree/Particle)
 Thermal correction to Energy=                    0.089789
 Thermal correction to Enthalpy=                  0.090733
 Thermal correction to Gibbs Free Energy=         0.058304
 Sum of electronic and zero-point Energies=           -193.115940
 Sum of electronic and thermal Energies=              -193.111180
 Sum of electronic and thermal Enthalpies=            -193.110235
 Sum of electronic and thermal Free Energies=         -193.142664

                     E (Thermal)             CV                S
                      KCal/Mol        Cal/Mol-Kelvin    Cal/Mol-Kelvin
 Total                   56.343             15.855             68.252
 Electronic               0.000              0.000              0.000
 Translational            0.889              2.981             38.096
 Rotational               0.889              2.981             23.847
 Vibrational             54.566              9.894              6.309
 Vibration     1          0.654              1.788              1.845
 Vibration     2          0.663              1.761              1.723
 Vibration     3          0.705              1.639              1.319
 Vibration     4          0.955              1.038              0.454

 Optimization completed.
    -- Stationary point found.
 Normal termination of Gaussian 16 at Mon Jun 20 11:17:17 2022.
