 Gaussian 16, Revision B.01,
 Gaussian 16:  ES64L-G16RevB.01 20-Dec-2017

 --------------------
 # b3lyp/gen opt freq
 --------------------

 --------------------------------
 dimethyl peroxide, B3LYP/pcseg-2
 --------------------------------
 Symbolic Z-matrix:
 Charge =  0 Multiplicity = 1

 SCF Done:  E(RB3LYP) =  -230.264545019     A.U. after   11 cycles
 SCF Done:  E(RB3LYP) =  -230.264549048     A.U. after    7 cycles
 SCF Done:  E(RB3LYP) =  -230.264549858     A.U. after    6 cycles
 Optimization completed.
    -- Stationary point found.
 Normal termination of Gaussian 16 at Thu Jun 16 21:19:28 2022.

 ------------------------------------------------------------------
 #N Geom=AllCheck Guess=TCheck SCRF=Check GenChk RB3LYP/ChkBas Freq
 ------------------------------------------------------------------

 Structure from the checkpoint file:  "/wrk/irikura/Gau-16824.chk"
 --------------------------------
 dimethyl peroxide, B3LYP/pcseg-2
 --------------------------------
 Charge =  0 Multiplicity = 1

                         Standard orientation:
 ---------------------------------------------------------------------
 Center     Atomic      Atomic             Coordinates (Angstroms)
 Number     Number       Type             X           Y           Z
 ---------------------------------------------------------------------
      1          8           0       -0.436731    0.587434    0.000000
      2          8           0        0.436731   -0.587434    0.000000
      3          6           0        0.436731    1.695031    0.000000
      4          6           0       -0.436731   -1.695031    0.000000
      5          1           0       -0.218977    2.564983    0.000000
      6          1           0        1.063924    1.705802    0.894355
      7          1           0        1.063924    1.705802   -0.894355
      8          1           0        0.218977   -2.564983    0.000000
      9          1           0       -1.063924   -1.705802    0.894355
     10          1           0       -1.063924   -1.705802   -0.894355
 ---------------------------------------------------------------------

 SCF Done:  E(RB3LYP) =  -230.264549858     A.U. after    1 cycles

 The electronic state is 1-AG.
 Alpha  occ. eigenvalues --  -19.17859 -19.17852 -10.21819 -10.21819  -1.11818
 Alpha  occ. eigenvalues --   -0.93423  -0.69238  -0.65921  -0.51821  -0.48718
 Alpha  occ. eigenvalues --   -0.48172  -0.43788  -0.40600  -0.40013  -0.34467
 Alpha  occ. eigenvalues --   -0.33371  -0.24544
 Alpha virt. eigenvalues --    0.01113   0.02221   0.03292   0.07341   0.07391
 Alpha virt. eigenvalues --    0.07547   0.08187   0.09568   0.13110   0.17273
 Alpha virt. eigenvalues --    0.18652   0.19327   0.19439   0.29177   0.29597

 Mulliken charges:
               1
     1  O   -0.261233
     2  O   -0.261233
     3  C    0.176372
     4  C    0.176372
     5  H    0.030154
     6  H    0.027353
     7  H    0.027353
     8  H    0.030154
     9  H    0.027353
    10  H    0.027353
 Sum of Mulliken charges =  -0.00000

 Dipole moment (field-independent basis, Debye):
    X=              0.0000    Y=              0.0000    Z=             -0.0000  Tot=              0.0000
 Quadrupole moment (field-independent basis, Debye-Ang):
   XX=            -26.1464   YY=            -19.0788   ZZ=            -25.5486
   XY=              1.7367   XZ=             -0.0000   YZ=              0.0000

  Exact polarizability:  34.462   1.922  49.860   0.000  -0.000  32.276
 Approx polarizability:  48.538  -2.666  59.445  -0.000  -0.000  42.400

                      1                      2                      3
                     AU                     AU                     BG
 Frequencies --     40.4125               208.0927               261.4868
 Red. masses --      3.0130                 1.0275                 1.4051
 Frc consts  --      0.0029                 0.0262                 0.0566
 IR Inten    --     11.1543                 3.3378                 0.0000

                      4                      5                      6
                     BU                     AG                     AG
 Frequencies --    303.0682               483.1732               839.2602
 Red. masses --      2.7053                 3.3411                 3.9072
 Frc consts  --      0.1464                 0.4596                 1.6215
 IR Inten    --     11.9392                 0.0000                 0.0000

                      7                      8                      9
                     BU                     AG                     BU
 Frequencies --   1050.7104              1060.8696              1171.5256
 Red. masses --      6.5101                 5.5921                 1.4193
 Frc consts  --      4.2345                 3.7081                 1.1477
 IR Inten    --    109.4537                 0.0000                12.3996

                     10                     11                     12
                     AU                     BG                     AG
 Frequencies --   1174.0547              1177.9541              1264.5635
 Red. masses --      1.2694                 1.2793                 1.9355
 Frc consts  --      1.0309                 1.0458                 1.8236
 IR Inten    --      2.0461                 0.0000                 0.0000

                     13                     14                     15
                     BU                     AG                     BG
 Frequencies --   1444.6568              1453.5136              1458.0116
 Red. masses --      1.1421                 1.1442                 1.0478
 Frc consts  --      1.4043                 1.4243                 1.3123
 IR Inten    --      4.0066                 0.0000                 0.0000

                     16                     17                     18
                     AU                     BU                     AG
 Frequencies --   1458.9827              1510.7922              1517.0587
 Red. masses --      1.0449                 1.0555                 1.0572
 Frc consts  --      1.3104                 1.4194                 1.4336
 IR Inten    --     12.5191                25.5777                 0.0000

                     19                     20                     21
                     BU                     AG                     BG
 Frequencies --   3009.2289              3012.2875              3071.4263
 Red. masses --      1.0296                 1.0306                 1.1070
 Frc consts  --      5.4933                 5.5098                 6.1527
 IR Inten    --     99.9099                 0.0000                 0.0000

                     22                     23                     24
                     AU                     BU                     AG
 Frequencies --   3071.6217              3115.7940              3115.9879
 Red. masses --      1.1066                 1.1008                 1.1017
 Frc consts  --      6.1517                 6.2966                 6.3024
 IR Inten    --     84.9239                26.0238                 0.0000

 - Thermochemistry -
 -------------------
 Temperature   298.150 Kelvin.  Pressure   1.00000 Atm.
 Atom     1 has atomic number  8 and mass  15.99491

 Molecular mass:    62.03678 amu.
 Principal axes and moments of inertia in atomic units:
                           1         2         3
     Eigenvalues --    56.70497 396.01129 429.68631
           X            0.16809   0.98577   0.00000
           Y            0.98577  -0.16809   0.00000
           Z            0.00000   0.00000   1.00000
 This molecule is an asymmetric top.
 Rotational symmetry number  2.
 Rotational temperatures (Kelvin)      1.52745     0.21872     0.20157
 Rotational constants (GHZ):          31.82686     4.55730     4.20014
 Zero-point vibrational energy     216969.9 (Joules/Mol)
                                   51.85705 (Kcal/Mol)
 Warning -- explicit consideration of   5 degrees of freedom as
           vibrations may cause significant error
 Vibrational temperatures:     58.14   299.40   376.22   436.05   695.18
          (Kelvin)           1207.51  1511.74  1526.35  1685.56  1689.20
                             1694.81  1819.42  2078.54  2091.28  2097.75
                             2099.15  2173.69  2182.71  4329.61  4334.01
                             4419.10  4419.38  4482.93  4483.21

 Zero-point correction=                           0.082639 (Hartree/Particle)
 Thermal correction to Energy=                    0.088228
 Thermal correction to Enthalpy=                  0.089172
 Thermal correction to Gibbs Free Energy=         0.054807
 Sum of electronic and zero-point Energies=           -230.181910
 Sum of electronic and thermal Energies=              -230.176322
 Sum of electronic and thermal Enthalpies=            -230.175378
 Sum of electronic and thermal Free Energies=         -230.209743

                     E (Thermal)             CV                S
                      KCal/Mol        Cal/Mol-Kelvin    Cal/Mol-Kelvin
 Total                   55.364             17.026             72.328
 Electronic               0.000              0.000              0.000
 Translational            0.889              2.981             38.295
 Rotational               0.889              2.981             22.405
 Vibrational             53.586             11.064             11.628
 Vibration     1          0.594              1.981              5.239
 Vibration     2          0.641              1.828              2.060
 Vibration     3          0.669              1.743              1.652
 Vibration     4          0.695              1.668              1.400
 Vibration     5          0.839              1.287              0.702

 Optimization completed.
    -- Stationary point found.
 Normal termination of Gaussian 16 at Thu Jun 16 21:20:07 2022.
