 Gaussian 16, Revision B.01,

 ---------------------------------------
 # b3lyp/gen opt freq CPHF(Grid=OneStep)
 ---------------------------------------

 --------------------------------
 dimethyl peroxide, B3LYP/pcseg-2
 --------------------------------
 Symbolic Z-matrix:
 Charge =  0 Multiplicity = 1

 SCF Done:  E(RB3LYP) =  -230.264549858     A.U. after   11 cycles
 Optimization completed.
    -- Stationary point found.
 Normal termination of Gaussian 16 at Sat Sep 30 14:35:17 2023.

 ------------------------------------------------------------------
 #N Geom=AllCheck Guess=TCheck SCRF=Check GenChk RB3LYP/ChkBas Freq
 ------------------------------------------------------------------

 Structure from the checkpoint file:  "meoome.chk"
 --------------------------------
 dimethyl peroxide, B3LYP/pcseg-2
 --------------------------------
 Charge =  0 Multiplicity = 1

 SCF Done:  E(RB3LYP) =  -230.264549858     A.U. after    1 cycles

  Exact polarizability:  34.462   1.921  49.860   0.000  -0.000  32.276
 Approx polarizability:  48.538  -2.666  59.445   0.000   0.000  42.400

                      1                      2                      3
                     AU                     AU                     BG
 Frequencies --     40.4050               208.0907               261.4854
 Red. masses --      3.0130                 1.0275                 1.4051
 Frc consts  --      0.0029                 0.0262                 0.0566
 IR Inten    --     11.1549                 3.3375                 0.0000

                      4                      5                      6
                     BU                     AG                     AG
 Frequencies --    303.0684               483.1738               839.2552
 Red. masses --      2.7053                 3.3411                 3.9073
 Frc consts  --      0.1464                 0.4596                 1.6215
 IR Inten    --     11.9395                 0.0000                 0.0000

                      7                      8                      9
                     BU                     AG                     BU
 Frequencies --   1050.7060              1060.8655              1171.5227
 Red. masses --      6.5103                 5.5920                 1.4193
 Frc consts  --      4.2346                 3.7080                 1.1477
 IR Inten    --    109.4542                 0.0000                12.3986

                     10                     11                     12
                     AU                     BG                     AG
 Frequencies --   1174.0529              1177.9535              1264.5625
 Red. masses --      1.2694                 1.2793                 1.9355
 Frc consts  --      1.0309                 1.0458                 1.8236
 IR Inten    --      2.0461                 0.0000                 0.0000

                     13                     14                     15
                     BU                     AG                     BG
 Frequencies --   1444.6562              1453.5140              1458.0152
 Red. masses --      1.1421                 1.1442                 1.0478
 Frc consts  --      1.4043                 1.4243                 1.3123
 IR Inten    --      4.0081                 0.0000                 0.0000

                     16                     17                     18
                     AU                     BU                     AG
 Frequencies --   1458.9865              1510.7910              1517.0581
 Red. masses --      1.0449                 1.0555                 1.0572
 Frc consts  --      1.3104                 1.4194                 1.4336
 IR Inten    --     12.5179                25.5765                 0.0000

                     19                     20                     21
                     BU                     AG                     BG
 Frequencies --   3009.2360              3012.2960              3071.4346
 Red. masses --      1.0296                 1.0306                 1.1070
 Frc consts  --      5.4933                 5.5099                 6.1527
 IR Inten    --     99.9230                 0.0000                 0.0000

                     22                     23                     24
                     AU                     BU                     AG
 Frequencies --   3071.6311              3115.7972              3115.9913
 Red. masses --      1.1066                 1.1008                 1.1017
 Frc consts  --      6.1517                 6.2967                 6.3024
 IR Inten    --     84.9248                26.0256                 0.0000

 - Thermochemistry -
 -------------------
 Temperature   298.150 Kelvin.  Pressure   1.00000 Atm.
 Atom     1 has atomic number  8 and mass  15.99491

 Molecular mass:    62.03678 amu.
 Principal axes and moments of inertia in atomic units:
                           1         2         3
     Eigenvalues --    56.70503 396.01139 429.68648
           X            0.16809   0.98577   0.00000
           Y            0.98577  -0.16809   0.00000
           Z           -0.00000  -0.00000   1.00000
 This molecule is an asymmetric top.
 Rotational symmetry number  2.
 Rotational temperatures (Kelvin)      1.52745     0.21872     0.20157
 Rotational constants (GHZ):          31.82683     4.55730     4.20013
 Zero-point vibrational energy     216970.0 (Joules/Mol)
                                   51.85707 (Kcal/Mol)
 Warning -- explicit consideration of   5 degrees of freedom as
           vibrations may cause significant error
 Vibrational temperatures:     58.13   299.40   376.22   436.05   695.18
          (Kelvin)           1207.50  1511.73  1526.35  1685.56  1689.20
                             1694.81  1819.42  2078.54  2091.28  2097.76
                             2099.16  2173.69  2182.71  4329.62  4334.02
                             4419.11  4419.39  4482.94  4483.22

 Zero-point correction=                           0.082640 (Hartree/Particle)
 Thermal correction to Energy=                    0.088228
 Thermal correction to Enthalpy=                  0.089172
 Thermal correction to Gibbs Free Energy=         0.054807
 Sum of electronic and zero-point Energies=           -230.181910
 Sum of electronic and thermal Energies=              -230.176322
 Sum of electronic and thermal Enthalpies=            -230.175378
 Sum of electronic and thermal Free Energies=         -230.209743

                     E (Thermal)             CV                S
                      KCal/Mol        Cal/Mol-Kelvin    Cal/Mol-Kelvin
 Total                   55.364             17.026             72.328
 Electronic               0.000              0.000              0.000
 Translational            0.889              2.981             38.295
 Rotational               0.889              2.981             22.405
 Vibrational             53.586             11.064             11.629
 Vibration     1          0.594              1.981              5.239
 Vibration     2          0.641              1.828              2.060
 Vibration     3          0.669              1.743              1.652
 Vibration     4          0.695              1.668              1.400
 Vibration     5          0.839              1.287              0.702

 Optimization completed.
    -- Stationary point found.
 Normal termination of Gaussian 16 at Sat Sep 30 14:37:50 2023.
 Gaussian 16:  ES64L-G16RevB.01 20-Dec-2017

 ---------------------------------
 # rohf/gen geom=check guess=check
 ---------------------------------

 -----------------------------------
 dimethyl peroxide, ROHF/cc-pVTZ-F12
 -----------------------------------
 Structure from the checkpoint file:  "meoome.chk"
 Charge =  0 Multiplicity = 1

                         Standard orientation:
 ---------------------------------------------------------------------
 Center     Atomic      Atomic             Coordinates (Angstroms)
 Number     Number       Type             X           Y           Z
 ---------------------------------------------------------------------
      1          8           0       -0.436731    0.587434    0.000000
      2          8           0        0.436731   -0.587434    0.000000
      3          6           0        0.436731    1.695031    0.000000
      4          6           0       -0.436731   -1.695031    0.000000
      5          1           0       -0.218977    2.564983    0.000000
      6          1           0        1.063924    1.705802    0.894355
      7          1           0        1.063924    1.705802   -0.894355
      8          1           0        0.218977   -2.564983    0.000000
      9          1           0       -1.063924   -1.705802    0.894355
     10          1           0       -1.063924   -1.705802   -0.894355
 ---------------------------------------------------------------------

 SCF Done:  E(ROHF) =  -228.932444276     A.U. after   10 cycles

 The electronic state is 1-AG.
 Alpha  occ. eigenvalues --  -20.61521 -20.61492 -11.27357 -11.27357  -1.46688
 Alpha  occ. eigenvalues --   -1.24280  -0.92671  -0.90310  -0.68342  -0.67351
 Alpha  occ. eigenvalues --   -0.66458  -0.60636  -0.56126  -0.55170  -0.50044
 Alpha  occ. eigenvalues --   -0.48896  -0.42164
 Alpha virt. eigenvalues --    0.05370   0.05807   0.06683   0.06775   0.08527
 Alpha virt. eigenvalues --    0.09011   0.09107   0.12718   0.16491   0.17163
 Alpha virt. eigenvalues --    0.18004   0.20952   0.21923   0.22385   0.23409

 Mulliken charges and spin densities:
               1          2
     1  O   -0.276172   0.000000
     2  O   -0.276172   0.000000
     3  C   -0.076868   0.000000
     4  C   -0.076868   0.000000
     5  H    0.136437   0.000000
     6  H    0.108302   0.000000
     7  H    0.108302   0.000000
     8  H    0.136437   0.000000
     9  H    0.108302   0.000000
    10  H    0.108302   0.000000
 Sum of Mulliken charges =  -0.00000   0.00000

 Dipole moment (field-independent basis, Debye):
    X=              0.0000    Y=              0.0000    Z=              0.0000  Tot=              0.0000
 Quadrupole moment (field-independent basis, Debye-Ang):
   XX=            -25.7941   YY=            -18.9091   ZZ=            -25.0754
   XY=              1.9543   XZ=             -0.0000   YZ=             -0.0000

 Normal termination of Gaussian 16 at Sat Sep 30 14:38:29 2023.
