 Gaussian 16, Revision B.01,
 Gaussian 16:  ES64L-G16RevB.01 20-Dec-2017

 --------------------
 # b3lyp/gen opt freq
 --------------------

 ------------------------------
 1-methylpyrrole, B3LYP/pcseg-2
 ------------------------------
 Symbolic Z-matrix:
 Charge =  0 Multiplicity = 1

 SCF Done:  E(RB3LYP) =  -249.579198450     A.U. after   12 cycles
 SCF Done:  E(RB3LYP) =  -249.579198965     A.U. after    7 cycles
 SCF Done:  E(RB3LYP) =  -249.579199288     A.U. after    7 cycles
 Optimization completed.
    -- Stationary point found.
 Normal termination of Gaussian 16 at Fri Feb 25 09:15:50 2022.

 ------------------------------------------------------------------
 #N Geom=AllCheck Guess=TCheck SCRF=Check GenChk RB3LYP/ChkBas Freq
 ------------------------------------------------------------------

 Structure from the checkpoint file:  "/wrk/irikura/Gau-27962.chk"
 ------------------------------
 1-methylpyrrole, B3LYP/pcseg-2
 ------------------------------
 Charge =  0 Multiplicity = 1

                         Standard orientation:
 ---------------------------------------------------------------------
 Center     Atomic      Atomic             Coordinates (Angstroms)
 Number     Number       Type             X           Y           Z
 ---------------------------------------------------------------------
      1          6           0        2.069653   -0.000001    0.024618
      2          1           0        2.457738   -0.882070   -0.480968
      3          1           0        2.457688    0.882429   -0.480371
      4          1           0        2.428855   -0.000336    1.055763
      5          6           0       -1.487606    0.709445    0.014537
      6          1           0       -2.347382    1.357065    0.021948
      7          6           0       -1.487604   -0.709447    0.014538
      8          1           0       -2.347378   -1.357069    0.021950
      9          6           0       -0.174263   -1.115791   -0.013101
     10          1           0        0.257481   -2.101461   -0.022933
     11          6           0       -0.174267    1.115790   -0.013100
     12          1           0        0.257477    2.101460   -0.022931
     13          7           0        0.622864    0.000001   -0.036774
 ---------------------------------------------------------------------

 SCF Done:  E(RB3LYP) =  -249.579199288     A.U. after    1 cycles

 The electronic state is 1-A.
 Alpha  occ. eigenvalues --  -14.36020 -10.21738 -10.18434 -10.18433 -10.15002
 Alpha  occ. eigenvalues --  -10.14953  -0.98441  -0.80239  -0.72001  -0.69231
 Alpha  occ. eigenvalues --   -0.57222  -0.55127  -0.53181  -0.46870  -0.44375
 Alpha  occ. eigenvalues --   -0.42050  -0.40968  -0.37906  -0.37727  -0.37470
 Alpha  occ. eigenvalues --   -0.23830  -0.21506
 Alpha virt. eigenvalues --    0.01162   0.01828   0.03985   0.04443   0.06056
 Alpha virt. eigenvalues --    0.06807   0.07130   0.08453   0.09514   0.09840
 Alpha virt. eigenvalues --    0.13079   0.15635   0.15813   0.18299   0.18803

 Mulliken charges:
               1
     1  C    0.066593
     2  H    0.035964
     3  H    0.035950
     4  H    0.054442
     5  C   -0.068822
     6  H    0.006778
     7  C   -0.068818
     8  H    0.006778
     9  C    0.045804
    10  H    0.031022
    11  C    0.045805
    12  H    0.031020
    13  N   -0.222517
 Sum of Mulliken charges =  -0.00000

 Dipole moment (field-independent basis, Debye):
    X=              2.1762    Y=              0.0000    Z=             -0.0026  Tot=              2.1762
 Quadrupole moment (field-independent basis, Debye-Ang):
   XX=            -32.3524   YY=            -33.9517   ZZ=            -40.3342
   XY=              0.0001   XZ=             -0.1089   YZ=             -0.0000

  Exact polarizability:  79.588  -0.001  69.233   0.489   0.000  43.995
 Approx polarizability: 115.456  -0.001 108.806   0.198   0.000  65.211

                      1                      2                      3
                      A                      A                      A
 Frequencies --     79.5393               191.1496               358.5246
 Red. masses --      1.0481                 3.3707                 2.5596
 Frc consts  --      0.0039                 0.0726                 0.1938
 IR Inten    --      0.0597                 3.0583                 0.6192

                      4                      5                      6
                      A                      A                      A
 Frequencies --    621.3402               629.6553               673.6393
 Red. masses --      3.4114                 2.9007                 4.1704
 Frc consts  --      0.7760                 0.6776                 1.1150
 IR Inten    --     10.5209                 0.0001                 5.4875

                      7                      8                      9
                      A                      A                      A
 Frequencies --    693.3803               731.2792               834.6040
 Red. masses --      1.3260                 1.1766                 1.3125
 Frc consts  --      0.3756                 0.3707                 0.5386
 IR Inten    --      0.0371               124.2461                 0.6588

                     10                     11                     12
                      A                      A                      A
 Frequencies --    888.8426               891.5002               987.8338
 Red. masses --      1.3233                 5.6879                 2.1057
 Frc consts  --      0.6159                 2.6634                 1.2107
 IR Inten    --      0.0910                 0.0720                10.0688

                     13                     14                     15
                      A                      A                      A
 Frequencies --   1063.0090              1079.0313              1108.1239
 Red. masses --      1.4967                 2.2409                 1.2034
 Frc consts  --      0.9965                 1.5372                 0.8706
 IR Inten    --      7.8951                 0.7090                10.5336

                     16                     17                     18
                      A                      A                      A
 Frequencies --   1109.9748              1146.5389              1304.0804
 Red. masses --      1.3459                 1.3035                 1.2888
 Frc consts  --      0.9770                 1.0096                 1.2913
 IR Inten    --     27.3816                 4.6207                 0.0753

                     19                     20                     21
                      A                      A                      A
 Frequencies --   1319.5998              1394.8354              1418.1574
 Red. masses --      4.8163                 4.1530                 4.1621
 Frc consts  --      4.9414                 4.7606                 4.9318
 IR Inten    --     42.8579                 0.1221                 5.5990

                     22                     23                     24
                      A                      A                      A
 Frequencies --   1454.3183              1490.4620              1512.6871
 Red. masses --      1.3001                 1.0472                 1.1322
 Frc consts  --      1.6201                 1.3707                 1.5264
 IR Inten    --     14.5692                11.0229                 7.0463

                     25                     26                     27
                      A                      A                      A
 Frequencies --   1539.6338              1552.6885              3030.0242
 Red. masses --      2.6199                 3.4532                 1.0411
 Frc consts  --      3.6590                 4.9051                 5.6314
 IR Inten    --     33.4792                 0.3337                61.6960

                     28                     29                     30
                      A                      A                      A
 Frequencies --   3095.1955              3126.3272              3235.1690
 Red. masses --      1.0943                 1.1041                 1.0875
 Frc consts  --      6.1770                 6.3579                 6.7059
 IR Inten    --     18.6173                10.9558                 2.2211

                     31                     32                     33
                      A                      A                      A
 Frequencies --   3244.8969              3256.0356              3263.9865
 Red. masses --      1.0918                 1.0989                 1.1068
 Frc consts  --      6.7734                 6.8643                 6.9474
 IR Inten    --      3.1923                 3.8011                 0.6178

 - Thermochemistry -
 -------------------
 Temperature   298.150 Kelvin.  Pressure   1.00000 Atm.
 Atom     1 has atomic number  6 and mass  12.00000

 Molecular mass:    81.05785 amu.
 Principal axes and moments of inertia in atomic units:
                           1         2         3
     Eigenvalues --   206.29312 505.44908 700.12676
           X            1.00000   0.00000   0.00065
           Y           -0.00000   1.00000   0.00000
           Z           -0.00065  -0.00000   1.00000
 This molecule is an asymmetric top.
 Rotational symmetry number  1.
 Rotational temperatures (Kelvin)      0.41986     0.17136     0.12371
 Rotational constants (GHZ):           8.74843     3.57057     2.57773
 Zero-point vibrational energy     289054.1 (Joules/Mol)
                                   69.08558 (Kcal/Mol)
 Warning -- explicit consideration of   3 degrees of freedom as
           vibrations may cause significant error
 Vibrational temperatures:    114.44   275.02   515.84   893.97   905.93
          (Kelvin)            969.22   997.62  1052.15  1200.81  1278.85
                             1282.67  1421.27  1529.43  1552.49  1594.34
                             1597.01  1649.61  1876.28  1898.61  2006.86
                             2040.41  2092.44  2144.44  2176.42  2215.19
                             2233.97  4359.53  4453.30  4498.09  4654.69
                             4668.68  4684.71  4696.15

 Zero-point correction=                           0.110095 (Hartree/Particle)
 Thermal correction to Energy=                    0.115665
 Thermal correction to Enthalpy=                  0.116610
 Thermal correction to Gibbs Free Energy=         0.081023
 Sum of electronic and zero-point Energies=           -249.469104
 Sum of electronic and thermal Energies=              -249.463534
 Sum of electronic and thermal Enthalpies=            -249.462590
 Sum of electronic and thermal Free Energies=         -249.498176

                     E (Thermal)             CV                S
                      KCal/Mol        Cal/Mol-Kelvin    Cal/Mol-Kelvin
 Total                   72.581             20.053             74.898
 Electronic               0.000              0.000              0.000
 Translational            0.889              2.981             39.092
 Rotational               0.889              2.981             25.793
 Vibrational             70.804             14.091             10.013
 Vibration     1          0.600              1.963              3.902
 Vibration     2          0.634              1.852              2.217
 Vibration     3          0.733              1.558              1.128

 Optimization completed.
    -- Stationary point found.
 Normal termination of Gaussian 16 at Fri Feb 25 09:27:42 2022.
