 Gaussian 16, Revision B.01,

 ---------------------------------------
 # b3lyp/gen opt freq CPHF(Grid=OneStep)
 ---------------------------------------

 ------------------------------
 1-methylpyrrole, B3LYP/pcseg-2
 ------------------------------
 Symbolic Z-matrix:
 Charge =  0 Multiplicity = 1

 SCF Done:  E(RB3LYP) =  -249.579199288     A.U. after   12 cycles
 Optimization completed.
    -- Stationary point found.
 Normal termination of Gaussian 16 at Thu Sep 28 18:28:56 2023.

 ------------------------------------------------------------------
 #N Geom=AllCheck Guess=TCheck SCRF=Check GenChk RB3LYP/ChkBas Freq
 ------------------------------------------------------------------

 Structure from the checkpoint file:  "mepy1.chk"
 ------------------------------
 1-methylpyrrole, B3LYP/pcseg-2
 ------------------------------
 Charge =  0 Multiplicity = 1

 SCF Done:  E(RB3LYP) =  -249.579199288     A.U. after    1 cycles

  Exact polarizability:  79.588  -0.001  69.233   0.489   0.000  43.998
 Approx polarizability: 115.456  -0.001 108.806   0.198   0.000  65.211

                      1                      2                      3
                      A                      A                      A
 Frequencies --     79.5500               191.1484               358.5241
 Red. masses --      1.0481                 3.3707                 2.5596
 Frc consts  --      0.0039                 0.0726                 0.1938
 IR Inten    --      0.0597                 3.0577                 0.6190

                      4                      5                      6
                      A                      A                      A
 Frequencies --    621.3383               629.6580               673.6366
 Red. masses --      3.4114                 2.9007                 4.1703
 Frc consts  --      0.7760                 0.6776                 1.1150
 IR Inten    --     10.5171                 0.0001                 5.4879

                      7                      8                      9
                      A                      A                      A
 Frequencies --    693.3777               731.2784               834.6005
 Red. masses --      1.3260                 1.1766                 1.3125
 Frc consts  --      0.3756                 0.3707                 0.5386
 IR Inten    --      0.0371               124.2382                 0.6590

                     10                     11                     12
                      A                      A                      A
 Frequencies --    888.8424               891.5029               987.8312
 Red. masses --      1.3232                 5.6885                 2.1057
 Frc consts  --      0.6159                 2.6637                 1.2107
 IR Inten    --      0.0910                 0.0722                10.0673

                     13                     14                     15
                      A                      A                      A
 Frequencies --   1063.0156              1079.0282              1108.1283
 Red. masses --      1.4967                 2.2409                 1.2034
 Frc consts  --      0.9965                 1.5372                 0.8706
 IR Inten    --      7.8931                 0.7095                10.5324

                     16                     17                     18
                      A                      A                      A
 Frequencies --   1109.9746              1146.5391              1304.0800
 Red. masses --      1.3459                 1.3035                 1.2888
 Frc consts  --      0.9770                 1.0096                 1.2913
 IR Inten    --     27.3783                 4.6212                 0.0752

                     19                     20                     21
                      A                      A                      A
 Frequencies --   1319.5982              1394.8442              1418.1538
 Red. masses --      4.8163                 4.1532                 4.1622
 Frc consts  --      4.9414                 4.7608                 4.9320
 IR Inten    --     42.8547                 0.1211                 5.5980

                     22                     23                     24
                      A                      A                      A
 Frequencies --   1454.3229              1490.4669              1512.6888
 Red. masses --      1.3001                 1.0472                 1.1322
 Frc consts  --      1.6201                 1.3707                 1.5265
 IR Inten    --     14.5769                11.0176                 7.0489

                     25                     26                     27
                      A                      A                      A
 Frequencies --   1539.6330              1552.6899              3030.0178
 Red. masses --      2.6198                 3.4531                 1.0411
 Frc consts  --      3.6589                 4.9049                 5.6314
 IR Inten    --     33.4758                 0.3342                61.7083

                     28                     29                     30
                      A                      A                      A
 Frequencies --   3095.1982              3126.3402              3235.1721
 Red. masses --      1.0943                 1.1041                 1.0875
 Frc consts  --      6.1770                 6.3580                 6.7059
 IR Inten    --     18.6219                10.9529                 2.2212

                     31                     32                     33
                      A                      A                      A
 Frequencies --   3244.9023              3256.0417              3263.9908
 Red. masses --      1.0918                 1.0989                 1.1068
 Frc consts  --      6.7734                 6.8643                 6.9474
 IR Inten    --      3.1897                 3.8025                 0.6181

 - Thermochemistry -
 -------------------
 Temperature   298.150 Kelvin.  Pressure   1.00000 Atm.
 Atom     1 has atomic number  6 and mass  12.00000

 Molecular mass:    81.05785 amu.
 Principal axes and moments of inertia in atomic units:
                           1         2         3
     Eigenvalues --   206.29312 505.44917 700.12684
           X            1.00000   0.00000   0.00065
           Y           -0.00000   1.00000  -0.00000
           Z           -0.00065   0.00000   1.00000
 This molecule is an asymmetric top.
 Rotational symmetry number  1.
 Rotational temperatures (Kelvin)      0.41986     0.17136     0.12371
 Rotational constants (GHZ):           8.74843     3.57057     2.57773
 Zero-point vibrational energy     289054.4 (Joules/Mol)
                                   69.08565 (Kcal/Mol)
 Warning -- explicit consideration of   3 degrees of freedom as
           vibrations may cause significant error
 Vibrational temperatures:    114.45   275.02   515.84   893.97   905.94
          (Kelvin)            969.21   997.62  1052.15  1200.80  1278.85
                             1282.67  1421.27  1529.44  1552.48  1594.35
                             1597.01  1649.61  1876.28  1898.61  2006.87
                             2040.41  2092.45  2144.45  2176.42  2215.19
                             2233.97  4359.52  4453.30  4498.11  4654.69
                             4668.69  4684.72  4696.15

 Zero-point correction=                           0.110095 (Hartree/Particle)
 Thermal correction to Energy=                    0.115666
 Thermal correction to Enthalpy=                  0.116610
 Thermal correction to Gibbs Free Energy=         0.081023
 Sum of electronic and zero-point Energies=           -249.469104
 Sum of electronic and thermal Energies=              -249.463534
 Sum of electronic and thermal Enthalpies=            -249.462590
 Sum of electronic and thermal Free Energies=         -249.498176

                     E (Thermal)             CV                S
                      KCal/Mol        Cal/Mol-Kelvin    Cal/Mol-Kelvin
 Total                   72.581             20.053             74.898
 Electronic               0.000              0.000              0.000
 Translational            0.889              2.981             39.092
 Rotational               0.889              2.981             25.793
 Vibrational             70.804             14.091             10.013
 Vibration     1          0.600              1.963              3.902
 Vibration     2          0.634              1.852              2.217
 Vibration     3          0.733              1.558              1.128

 Optimization completed.
    -- Stationary point found.
 Normal termination of Gaussian 16 at Thu Sep 28 18:45:57 2023.
 Gaussian 16:  ES64L-G16RevB.01 20-Dec-2017

 ---------------------------------
 # rohf/gen geom=check guess=check
 ---------------------------------

 ---------------------------------
 1-methylpyrrole, ROHF/cc-pVTZ-F12
 ---------------------------------
 Structure from the checkpoint file:  "mepy1.chk"
 Charge =  0 Multiplicity = 1

                         Standard orientation:
 ---------------------------------------------------------------------
 Center     Atomic      Atomic             Coordinates (Angstroms)
 Number     Number       Type             X           Y           Z
 ---------------------------------------------------------------------
      1          6           0        2.069653   -0.000001    0.024618
      2          1           0        2.457738   -0.882070   -0.480968
      3          1           0        2.457688    0.882429   -0.480371
      4          1           0        2.428855   -0.000336    1.055763
      5          6           0       -1.487606    0.709445    0.014537
      6          1           0       -2.347382    1.357065    0.021948
      7          6           0       -1.487604   -0.709447    0.014538
      8          1           0       -2.347378   -1.357069    0.021950
      9          6           0       -0.174263   -1.115791   -0.013101
     10          1           0        0.257481   -2.101461   -0.022933
     11          6           0       -0.174267    1.115790   -0.013100
     12          1           0        0.257477    2.101460   -0.022931
     13          7           0        0.622864    0.000001   -0.036774
 ---------------------------------------------------------------------

 SCF Done:  E(ROHF) =  -247.941615867     A.U. after   11 cycles

 The electronic state is 1-A.
 Alpha  occ. eigenvalues --  -15.60265 -11.27122 -11.24488 -11.24484 -11.20455
 Alpha  occ. eigenvalues --  -11.20349  -1.29903  -1.07306  -0.97483  -0.93438
 Alpha  occ. eigenvalues --   -0.77326  -0.75120  -0.70951  -0.63417  -0.60459
 Alpha  occ. eigenvalues --   -0.57257  -0.56353  -0.52916  -0.52525  -0.52167
 Alpha  occ. eigenvalues --   -0.33423  -0.29478
 Alpha virt. eigenvalues --    0.04151   0.05366   0.05384   0.06209   0.06771
 Alpha virt. eigenvalues --    0.07114   0.09530   0.09710   0.10214   0.10806
 Alpha virt. eigenvalues --    0.11725   0.11962   0.12654   0.13218   0.13738

 Mulliken charges and spin densities:
               1          2
     1  C   -0.124460   0.000000
     2  H    0.109309   0.000000
     3  H    0.109321   0.000000
     4  H    0.104308   0.000000
     5  C   -0.221200   0.000000
     6  H    0.156793   0.000000
     7  C   -0.221172   0.000000
     8  H    0.156791   0.000000
     9  C   -0.052969   0.000000
    10  H    0.165829   0.000000
    11  C   -0.052903   0.000000
    12  H    0.165824   0.000000
    13  N   -0.295472   0.000000
 Sum of Mulliken charges =  -0.00000   0.00000

 Dipole moment (field-independent basis, Debye):
    X=              2.1622    Y=              0.0000    Z=              0.0029  Tot=              2.1622
 Quadrupole moment (field-independent basis, Debye-Ang):
   XX=            -32.2562   YY=            -33.6700   ZZ=            -40.8498
   XY=              0.0001   XZ=             -0.1098   YZ=              0.0000

 Normal termination of Gaussian 16 at Thu Sep 28 18:52:48 2023.
