 Gaussian 16, Revision B.01,
 Gaussian 16:  ES64L-G16RevB.01 20-Dec-2017

 --------------------
 # b3lyp/gen opt freq
 --------------------

 -----------------
 N2, B3LYP/pcseg-2
 -----------------
 Symbolic Z-matrix:
 Charge =  0 Multiplicity = 1

 SCF Done:  E(RB3LYP) =  -109.494215041     A.U. after    8 cycles
 SCF Done:  E(RB3LYP) =  -109.565539225     A.U. after    9 cycles
 SCF Done:  E(RB3LYP) =  -109.571918399     A.U. after    8 cycles
 SCF Done:  E(RB3LYP) =  -109.571932620     A.U. after    6 cycles
 Optimization completed.
    -- Stationary point found.
 Normal termination of Gaussian 16 at Thu Feb  3 16:23:21 2022.

 ------------------------------------------------------------------
 #N Geom=AllCheck Guess=TCheck SCRF=Check GenChk RB3LYP/ChkBas Freq
 ------------------------------------------------------------------

 Structure from the checkpoint file:  "/wrk/irikura/Gau-30557.chk"
 -----------------
 N2, B3LYP/pcseg-2
 -----------------
 Charge =  0 Multiplicity = 1

                         Standard orientation:
 ---------------------------------------------------------------------
 Center     Atomic      Atomic             Coordinates (Angstroms)
 Number     Number       Type             X           Y           Z
 ---------------------------------------------------------------------
      1          7           0        0.000000    0.000000    0.545458
      2          7           0        0.000000    0.000000   -0.545458
 ---------------------------------------------------------------------

 SCF Done:  E(RB3LYP) =  -109.571932620     A.U. after    1 cycles

 The electronic state is 1-SGG.
 Alpha  occ. eigenvalues --  -14.42143 -14.41953  -1.13619  -0.55750  -0.47596
 Alpha  occ. eigenvalues --   -0.47596  -0.43943
 Alpha virt. eigenvalues --   -0.03245  -0.03245   0.17683   0.20892   0.22710
 Alpha virt. eigenvalues --    0.22710   0.26853   0.35480   0.35480   0.52698
 Alpha virt. eigenvalues --    0.72524   0.96997   0.96997   1.20129   1.20129

 Mulliken charges:
               1
     1  N   -0.000000
     2  N   -0.000000
 Sum of Mulliken charges =  -0.00000

 Dipole moment (field-independent basis, Debye):
    X=             -0.0000    Y=             -0.0000    Z=              0.0000  Tot=              0.0000
 Quadrupole moment (field-independent basis, Debye-Ang):
   XX=            -10.2703   YY=            -10.2703   ZZ=            -11.9092
   XY=              0.0000   XZ=              0.0000   YZ=             -0.0000

  Exact polarizability:   8.154   0.000   8.154   0.000  -0.000  15.092
 Approx polarizability:  10.800  -0.000  10.800  -0.000  -0.000  27.589

                      1
                     SGG
 Frequencies --   2449.4910
 Red. masses --     14.0031
 Frc consts  --     49.5023
 IR Inten    --      0.0000

 - Thermochemistry -
 -------------------
 Temperature   298.150 Kelvin.  Pressure   1.00000 Atm.
 Atom     1 has atomic number  7 and mass  14.00307

 Molecular mass:    28.00615 amu.
 Principal axes and moments of inertia in atomic units:
                           1         2         3
     Eigenvalues --    -0.00000  29.75594  29.75594
           X           -0.00000   1.00000  -0.00000
           Y            0.00000   0.00000   1.00000
           Z            1.00000   0.00000  -0.00000
 This molecule is a prolate symmetric top.
 Rotational symmetry number  2.
 Rotational temperature (Kelvin)      2.91081
 Rotational constant (GHZ):          60.651467
 Zero-point vibrational energy      14651.2 (Joules/Mol)
                                    3.50172 (Kcal/Mol)
 Vibrational temperatures:   3524.27
          (Kelvin)

 Zero-point correction=                           0.005580 (Hartree/Particle)
 Thermal correction to Energy=                    0.007941
 Thermal correction to Enthalpy=                  0.008885
 Thermal correction to Gibbs Free Energy=        -0.012844
 Sum of electronic and zero-point Energies=           -109.566352
 Sum of electronic and thermal Energies=              -109.563992
 Sum of electronic and thermal Enthalpies=            -109.563048
 Sum of electronic and thermal Free Energies=         -109.584777

                     E (Thermal)             CV                S
                      KCal/Mol        Cal/Mol-Kelvin    Cal/Mol-Kelvin
 Total                    4.983              4.970             45.733
 Electronic               0.000              0.000              0.000
 Translational            0.889              2.981             35.924
 Rotational               0.592              1.987              9.809
 Vibrational              3.502              0.002              0.000

 Optimization completed.
    -- Stationary point found.
 Normal termination of Gaussian 16 at Thu Feb  3 16:23:28 2022.
