 Gaussian 16, Revision B.01,

 ---------------------------------------
 # b3lyp/gen opt freq CPHF(Grid=OneStep)
 ---------------------------------------

 ------------------------
 hydrazine, B3LYP/pcseg-2
 ------------------------
 Symbolic Z-matrix:
 Charge =  0 Multiplicity = 1

 SCF Done:  E(RB3LYP) =  -111.923159426     A.U. after   10 cycles
 Optimization completed.
    -- Stationary point found.
 Normal termination of Gaussian 16 at Sat Sep 30 21:14:44 2023.

 ------------------------------------------------------------------
 #N Geom=AllCheck Guess=TCheck SCRF=Check GenChk RB3LYP/ChkBas Freq
 ------------------------------------------------------------------

 Structure from the checkpoint file:  "n2h4.chk"
 ------------------------
 hydrazine, B3LYP/pcseg-2
 ------------------------
 Charge =  0 Multiplicity = 1

 SCF Done:  E(RB3LYP) =  -111.923159426     A.U. after    1 cycles

  Exact polarizability:  18.583   1.001  22.949  -0.000   0.000  18.646
 Approx polarizability:  24.325   1.391  27.885   0.000  -0.000  24.411

                      1                      2                      3
                      A                      A                      B
 Frequencies --    449.3146               797.9949               969.1780
 Red. masses --      1.0466                 1.7350                 1.1838
 Frc consts  --      0.1245                 0.6510                 0.6551
 IR Inten    --     37.2143                79.6998               151.2658

                      4                      5                      6
                      A                      B                      A
 Frequencies --   1112.5719              1296.9916              1322.8603
 Red. masses --      2.2005                 1.1746                 1.2272
 Frc consts  --      1.6048                 1.1642                 1.2653
 IR Inten    --     12.7195                 4.7933                 3.1889

                      7                      8                      9
                      B                      A                      B
 Frequencies --   1675.2884              1689.0615              3461.3318
 Red. masses --      1.0908                 1.0466                 1.0523
 Frc consts  --      1.8037                 1.7591                 7.4278
 IR Inten    --     15.1478                12.4323                13.4050

                     10                     11                     12
                      A                      A                      B
 Frequencies --   3469.0251              3565.2031              3570.5613
 Red. masses --      1.0488                 1.0949                 1.0910
 Frc consts  --      7.4365                 8.1994                 8.1952
 IR Inten    --      1.8207                 1.2842                 3.5555

 - Thermochemistry -
 -------------------
 Temperature   298.150 Kelvin.  Pressure   1.00000 Atm.
 Atom     1 has atomic number  7 and mass  14.00307

 Molecular mass:    32.03745 amu.
 Principal axes and moments of inertia in atomic units:
                           1         2         3
     Eigenvalues --    12.34575  74.12275  74.14103
           X            0.08100   0.99671   0.00000
           Y            0.99671  -0.08100   0.00000
           Z           -0.00000  -0.00000   1.00000
 This molecule is an asymmetric top.
 Rotational symmetry number  2.
 Rotational temperatures (Kelvin)      7.01569     1.16852     1.16823
 Rotational constants (GHZ):         146.18321    24.34801    24.34200
 Zero-point vibrational energy     139839.8 (Joules/Mol)
                                   33.42251 (Kcal/Mol)
 Warning -- explicit consideration of   1 degrees of freedom as
           vibrations may cause significant error
 Vibrational temperatures:    646.46  1148.14  1394.43  1600.74  1866.08
          (Kelvin)           1903.30  2410.37  2430.18  4980.08  4991.15
                             5129.53  5137.24

 Zero-point correction=                           0.053262 (Hartree/Particle)
 Thermal correction to Energy=                    0.056529
 Thermal correction to Enthalpy=                  0.057474
 Thermal correction to Gibbs Free Energy=         0.031323
 Sum of electronic and zero-point Energies=           -111.869897
 Sum of electronic and thermal Energies=              -111.866630
 Sum of electronic and thermal Enthalpies=            -111.865686
 Sum of electronic and thermal Free Energies=         -111.891837

                     E (Thermal)             CV                S
                      KCal/Mol        Cal/Mol-Kelvin    Cal/Mol-Kelvin
 Total                   35.473              9.025             55.040
 Electronic               0.000              0.000              0.000
 Translational            0.889              2.981             36.325
 Rotational               0.889              2.981             17.479
 Vibrational             33.695              3.063              1.235
 Vibration     1          0.808              1.362              0.798

 Optimization completed.
    -- Stationary point found.
 Normal termination of Gaussian 16 at Sat Sep 30 21:15:24 2023.
 Gaussian 16:  ES64L-G16RevB.01 20-Dec-2017

 ---------------------------------
 # rohf/gen geom=check guess=check
 ---------------------------------

 ---------------------------
 hydrazine, ROHF/cc-pVTZ-F12
 ---------------------------
 Structure from the checkpoint file:  "n2h4.chk"
 Charge =  0 Multiplicity = 1

                         Standard orientation:
 ---------------------------------------------------------------------
 Center     Atomic      Atomic             Coordinates (Angstroms)
 Number     Number       Type             X           Y           Z
 ---------------------------------------------------------------------
      1          7           0       -0.000000    0.715183   -0.072814
      2          7           0       -0.000000   -0.715183   -0.072814
      3          1           0       -0.236423    1.104151    0.833038
      4          1           0        0.236423   -1.104151    0.833038
      5          1           0        0.926967    1.029132   -0.323337
      6          1           0       -0.926967   -1.029132   -0.323337
 ---------------------------------------------------------------------

 SCF Done:  E(ROHF) =  -111.233709906     A.U. after   10 cycles

 The electronic state is 1-A.
 Alpha  occ. eigenvalues --  -15.56814 -15.56768  -1.25449  -1.01048  -0.67851
 Alpha  occ. eigenvalues --   -0.66840  -0.61060  -0.41562  -0.40775
 Alpha virt. eigenvalues --    0.07052   0.07183   0.09426   0.11083   0.13177
 Alpha virt. eigenvalues --    0.13991   0.15114   0.22123   0.23017   0.25235
 Alpha virt. eigenvalues --    0.26631   0.26878   0.38283   0.45033   0.45621

 Mulliken charges and spin densities:
               1          2
     1  N   -0.511758   0.000000
     2  N   -0.511758   0.000000
     3  H    0.236735   0.000000
     4  H    0.236735   0.000000
     5  H    0.275023   0.000000
     6  H    0.275023   0.000000
 Sum of Mulliken charges =  -0.00000   0.00000

 Dipole moment (field-independent basis, Debye):
    X=             -0.0000    Y=              0.0000    Z=              1.9855  Tot=              1.9855
 Quadrupole moment (field-independent basis, Debye-Ang):
   XX=            -12.4550   YY=            -12.9831   ZZ=            -13.0335
   XY=              2.6564   XZ=              0.0000   YZ=              0.0000

 Normal termination of Gaussian 16 at Sat Sep 30 21:15:30 2023.
