 Gaussian 16, Revision B.01,
 Gaussian 16:  ES64L-G16RevB.01 20-Dec-2017

 --------------------
 # b3lyp/gen opt freq
 --------------------

 ------------------------
 hydrazine, B3LYP/pcseg-2
 ------------------------
 Symbolic Z-matrix:
 Charge =  0 Multiplicity = 1

 SCF Done:  E(RB3LYP) =  -111.922868745     A.U. after   10 cycles
 SCF Done:  E(RB3LYP) =  -111.923105598     A.U. after    9 cycles
 SCF Done:  E(RB3LYP) =  -111.923153600     A.U. after    7 cycles
 SCF Done:  E(RB3LYP) =  -111.923158226     A.U. after    7 cycles
 SCF Done:  E(RB3LYP) =  -111.923159426     A.U. after    7 cycles
 Optimization completed.
    -- Stationary point found.
 Normal termination of Gaussian 16 at Wed Jun 15 17:41:50 2022.

 ------------------------------------------------------------------
 #N Geom=AllCheck Guess=TCheck SCRF=Check GenChk RB3LYP/ChkBas Freq
 ------------------------------------------------------------------

 Structure from the checkpoint file:  "/wrk/irikura/Gau-9655.chk"
 ------------------------
 hydrazine, B3LYP/pcseg-2
 ------------------------
 Charge =  0 Multiplicity = 1

                         Standard orientation:
 ---------------------------------------------------------------------
 Center     Atomic      Atomic             Coordinates (Angstroms)
 Number     Number       Type             X           Y           Z
 ---------------------------------------------------------------------
      1          7           0       -0.000000    0.715183   -0.072814
      2          7           0       -0.000000   -0.715183   -0.072814
      3          1           0       -0.236423    1.104151    0.833038
      4          1           0        0.236423   -1.104151    0.833038
      5          1           0        0.926967    1.029132   -0.323337
      6          1           0       -0.926967   -1.029132   -0.323337
 ---------------------------------------------------------------------

 SCF Done:  E(RB3LYP) =  -111.923159426     A.U. after    1 cycles

 The electronic state is 1-A.
 Alpha  occ. eigenvalues --  -14.32274 -14.32261  -0.95009  -0.75309  -0.50757
 Alpha  occ. eigenvalues --   -0.49420  -0.45928  -0.26113  -0.25597
 Alpha virt. eigenvalues --    0.00608   0.03353   0.06949   0.07415   0.18374
 Alpha virt. eigenvalues --    0.24031   0.25736   0.26603   0.30004   0.31814
 Alpha virt. eigenvalues --    0.33434   0.36574   0.40784   0.42247   0.43064

 Mulliken charges:
               1
     1  N   -0.251277
     2  N   -0.251277
     3  H    0.112111
     4  H    0.112111
     5  H    0.139166
     6  H    0.139166
 Sum of Mulliken charges =  -0.00000

 Dipole moment (field-independent basis, Debye):
    X=              0.0000    Y=              0.0000    Z=              1.9640  Tot=              1.9640
 Quadrupole moment (field-independent basis, Debye-Ang):
   XX=            -12.6674   YY=            -13.1241   ZZ=            -13.2615
   XY=              2.6345   XZ=             -0.0000   YZ=             -0.0000

  Exact polarizability:  18.583   1.001  22.949  -0.000   0.000  18.646
 Approx polarizability:  24.325   1.391  27.885   0.000   0.000  24.411

                      1                      2                      3
                      A                      A                      B
 Frequencies --    449.3089               797.9934               969.1742
 Red. masses --      1.0466                 1.7350                 1.1838
 Frc consts  --      0.1245                 0.6510                 0.6551
 IR Inten    --     37.2156                79.7003               151.2665

                      4                      5                      6
                      A                      B                      A
 Frequencies --   1112.5696              1296.9907              1322.8598
 Red. masses --      2.2005                 1.1746                 1.2272
 Frc consts  --      1.6048                 1.1642                 1.2653
 IR Inten    --     12.7197                 4.7938                 3.1890

                      7                      8                      9
                      B                      A                      B
 Frequencies --   1675.2869              1689.0605              3461.3288
 Red. masses --      1.0908                 1.0466                 1.0523
 Frc consts  --      1.8037                 1.7591                 7.4278
 IR Inten    --     15.1489                12.4331                13.4065

                     10                     11                     12
                      A                      A                      B
 Frequencies --   3469.0249              3565.2103              3570.5693
 Red. masses --      1.0488                 1.0949                 1.0910
 Frc consts  --      7.4365                 8.1994                 8.1952
 IR Inten    --      1.8204                 1.2845                 3.5560

 - Thermochemistry -
 -------------------
 Temperature   298.150 Kelvin.  Pressure   1.00000 Atm.
 Atom     1 has atomic number  7 and mass  14.00307

 Molecular mass:    32.03745 amu.
 Principal axes and moments of inertia in atomic units:
                           1         2         3
     Eigenvalues --    12.34575  74.12279  74.14106
           X            0.08100   0.99671   0.00000
           Y            0.99671  -0.08100   0.00000
           Z            0.00000   0.00000   1.00000
 This molecule is an asymmetric top.
 Rotational symmetry number  2.
 Rotational temperatures (Kelvin)      7.01569     1.16852     1.16823
 Rotational constants (GHZ):         146.18323    24.34799    24.34199
 Zero-point vibrational energy     139839.7 (Joules/Mol)
                                   33.42250 (Kcal/Mol)
 Warning -- explicit consideration of   1 degrees of freedom as
           vibrations may cause significant error
 Vibrational temperatures:    646.46  1148.13  1394.43  1600.74  1866.08
          (Kelvin)           1903.30  2410.36  2430.18  4980.08  4991.15
                             5129.54  5137.25

 Zero-point correction=                           0.053262 (Hartree/Particle)
 Thermal correction to Energy=                    0.056529
 Thermal correction to Enthalpy=                  0.057474
 Thermal correction to Gibbs Free Energy=         0.031323
 Sum of electronic and zero-point Energies=           -111.869897
 Sum of electronic and thermal Energies=              -111.866630
 Sum of electronic and thermal Enthalpies=            -111.865686
 Sum of electronic and thermal Free Energies=         -111.891837

                     E (Thermal)             CV                S
                      KCal/Mol        Cal/Mol-Kelvin    Cal/Mol-Kelvin
 Total                   35.473              9.025             55.040
 Electronic               0.000              0.000              0.000
 Translational            0.889              2.981             36.325
 Rotational               0.889              2.981             17.479
 Vibrational             33.695              3.063              1.235
 Vibration     1          0.808              1.362              0.798

 Optimization completed.
    -- Stationary point found.
 Normal termination of Gaussian 16 at Wed Jun 15 17:42:04 2022.
