 Gaussian 16, Revision B.01,

 ---------------------------------------
 # b3lyp/gen opt freq CPHF(Grid=OneStep)
 ---------------------------------------

 -----------------------------------
 dinitrogen tetroxide, B3LYP/pcseg-2
 -----------------------------------
 Symbolic Z-matrix:
 Charge =  0 Multiplicity = 1

 SCF Done:  E(RB3LYP) =  -410.349527959     A.U. after   11 cycles
 Optimization completed.
    -- Stationary point found.
 Normal termination of Gaussian 16 at Sun Oct  1 01:06:32 2023.

 ------------------------------------------------------------------
 #N Geom=AllCheck Guess=TCheck SCRF=Check GenChk RB3LYP/ChkBas Freq
 ------------------------------------------------------------------

 Structure from the checkpoint file:  "n2o4.chk"
 -----------------------------------
 dinitrogen tetroxide, B3LYP/pcseg-2
 -----------------------------------
 Charge =  0 Multiplicity = 1

 SCF Done:  E(RB3LYP) =  -410.349527959     A.U. after    1 cycles

  Exact polarizability:  17.927  -0.000  47.418  -0.000  -0.000  52.334
 Approx polarizability:  25.802   0.000 112.935  -0.000  -0.000  88.047

                      1                      2                      3
                     AU                     B2U                    AG
 Frequencies --     86.8312               223.0524               291.9878
 Red. masses --     15.9949                15.9223                15.4955
 Frc consts  --      0.0711                 0.4667                 0.7784
 IR Inten    --      0.0000                 0.0521                 0.0000

                      4                      5                      6
                     B3U                    B3G                    B2G
 Frequencies --    442.3950               494.0613               696.4317
 Red. masses --     14.5549                15.5601                14.2913
 Frc consts  --      1.6783                 2.2378                 4.0839
 IR Inten    --     16.0774                 0.0000                 0.0000

                      7                      8                      9
                     B1U                    AG                     B1U
 Frequencies --    760.5275               850.3318              1303.5754
 Red. masses --     15.0371                15.1358                15.4505
 Frc consts  --      5.1244                 6.4481                15.4691
 IR Inten    --    291.5089                 0.0000               501.7704

                     10                     11                     12
                     AG                     B3G                    B2U
 Frequencies --   1447.3701              1784.3791              1816.6530
 Red. masses --     15.1861                14.5492                14.6156
 Frc consts  --     18.7438                27.2939                28.4191
 IR Inten    --      0.0000                 0.0000               750.2673

 - Thermochemistry -
 -------------------
 Temperature   298.150 Kelvin.  Pressure   1.00000 Atm.
 Atom     1 has atomic number  7 and mass  14.00307

 Molecular mass:    91.98581 amu.
 Principal axes and moments of inertia in atomic units:
                           1         2         3
     Eigenvalues --   273.46871 503.88032 777.34903
           X            0.00000  -0.00000   1.00000
           Y            0.00000   1.00000   0.00000
           Z            1.00000  -0.00000  -0.00000
 This molecule is an asymmetric top.
 Rotational symmetry number  4.
 Rotational temperatures (Kelvin)      0.31672     0.17189     0.11142
 Rotational constants (GHZ):           6.59944     3.58169     2.32166
 Zero-point vibrational energy      60995.2 (Joules/Mol)
                                   14.57820 (Kcal/Mol)
 Warning -- explicit consideration of   5 degrees of freedom as
           vibrations may cause significant error
 Vibrational temperatures:    124.93   320.92   420.11   636.51   710.84
          (Kelvin)           1002.01  1094.23  1223.44  1875.55  2082.44
                             2567.32  2613.76

 Zero-point correction=                           0.023232 (Hartree/Particle)
 Thermal correction to Energy=                    0.028569
 Thermal correction to Enthalpy=                  0.029513
 Thermal correction to Gibbs Free Energy=        -0.004828
 Sum of electronic and zero-point Energies=           -410.326296
 Sum of electronic and thermal Energies=              -410.320959
 Sum of electronic and thermal Enthalpies=            -410.320015
 Sum of electronic and thermal Free Energies=         -410.354356

                     E (Thermal)             CV                S
                      KCal/Mol        Cal/Mol-Kelvin    Cal/Mol-Kelvin
 Total                   17.927             16.468             72.278
 Electronic               0.000              0.000              0.000
 Translational            0.889              2.981             39.469
 Rotational               0.889              2.981             23.419
 Vibrational             16.150             10.506              9.389
 Vibration     1          0.601              1.958              3.730
 Vibration     2          0.649              1.806              1.934
 Vibration     3          0.687              1.689              1.462
 Vibration     4          0.802              1.378              0.819
 Vibration     5          0.850              1.263              0.673

 Optimization completed.
    -- Stationary point found.
 Normal termination of Gaussian 16 at Sun Oct  1 01:07:48 2023.
 Gaussian 16:  ES64L-G16RevB.01 20-Dec-2017

 ---------------------------------
 # rohf/gen geom=check guess=check
 ---------------------------------

 --------------------------------------
 dinitrogen tetroxide, ROHF/cc-pVTZ-F12
 --------------------------------------
 Structure from the checkpoint file:  "n2o4.chk"
 Charge =  0 Multiplicity = 1

                         Standard orientation:
 ---------------------------------------------------------------------
 Center     Atomic      Atomic             Coordinates (Angstroms)
 Number     Number       Type             X           Y           Z
 ---------------------------------------------------------------------
      1          7           0        0.000000    0.000000    0.903313
      2          7           0        0.000000    0.000000   -0.903313
      3          8           0        0.000000    1.094042    1.359493
      4          8           0       -0.000000   -1.094042    1.359493
      5          8           0        0.000000    1.094042   -1.359493
      6          8           0       -0.000000   -1.094042   -1.359493
 ---------------------------------------------------------------------

 SCF Done:  E(ROHF) =  -408.219168728     A.U. after   10 cycles

 The electronic state is 1-AG.
 Alpha  occ. eigenvalues --  -20.68671 -20.68671 -20.68665 -20.68664 -15.93124
 Alpha  occ. eigenvalues --  -15.93110  -1.70933  -1.67580  -1.51448  -1.49798
 Alpha  occ. eigenvalues --   -1.02834  -0.91027  -0.87006  -0.81266  -0.80663
 Alpha  occ. eigenvalues --   -0.79308  -0.77008  -0.71368  -0.59851  -0.54801
 Alpha  occ. eigenvalues --   -0.53781  -0.52602  -0.46521
 Alpha virt. eigenvalues --    0.02540   0.03554   0.06160   0.08609   0.09129
 Alpha virt. eigenvalues --    0.09393   0.09661   0.11044   0.14104   0.14627
 Alpha virt. eigenvalues --    0.15427   0.15671   0.15831   0.20024   0.20093

 Mulliken charges and spin densities:
               1          2
     1  N    0.558331   0.000000
     2  N    0.558331   0.000000
     3  O   -0.279165   0.000000
     4  O   -0.279165   0.000000
     5  O   -0.279165   0.000000
     6  O   -0.279165   0.000000
 Sum of Mulliken charges =  -0.00000   0.00000

 Dipole moment (field-independent basis, Debye):
    X=              0.0000    Y=              0.0000    Z=             -0.0000  Tot=              0.0000
 Quadrupole moment (field-independent basis, Debye-Ang):
   XX=            -29.5557   YY=            -36.8010   ZZ=            -35.3126
   XY=             -0.0000   XZ=             -0.0000   YZ=              0.0000

 Normal termination of Gaussian 16 at Sun Oct  1 01:08:20 2023.
