 Gaussian 16, Revision B.01,
 Gaussian 16:  ES64L-G16RevB.01 20-Dec-2017

 --------------------
 # b3lyp/gen opt freq
 --------------------

 -----------------------------------
 dinitrogen tetroxide, B3LYP/pcseg-2
 -----------------------------------
 Symbolic Z-matrix:
 Charge =  0 Multiplicity = 1

 SCF Done:  E(RB3LYP) =  -410.349496734     A.U. after   11 cycles
 SCF Done:  E(RB3LYP) =  -410.349526918     A.U. after    7 cycles
 SCF Done:  E(RB3LYP) =  -410.349527959     A.U. after    6 cycles
 Optimization completed.
    -- Stationary point found.
 Normal termination of Gaussian 16 at Fri Jun 17 14:24:10 2022.

 ------------------------------------------------------------------
 #N Geom=AllCheck Guess=TCheck SCRF=Check GenChk RB3LYP/ChkBas Freq
 ------------------------------------------------------------------

 Structure from the checkpoint file:  "/wrk/irikura/Gau-7397.chk"
 -----------------------------------
 dinitrogen tetroxide, B3LYP/pcseg-2
 -----------------------------------
 Charge =  0 Multiplicity = 1

                         Standard orientation:
 ---------------------------------------------------------------------
 Center     Atomic      Atomic             Coordinates (Angstroms)
 Number     Number       Type             X           Y           Z
 ---------------------------------------------------------------------
      1          7           0        0.000000    0.000000    0.903313
      2          7           0        0.000000    0.000000   -0.903313
      3          8           0       -0.000000    1.094042    1.359493
      4          8           0       -0.000000   -1.094042    1.359493
      5          8           0        0.000000    1.094042   -1.359493
      6          8           0       -0.000000   -1.094042   -1.359493
 ---------------------------------------------------------------------

 SCF Done:  E(RB3LYP) =  -410.349527959     A.U. after    1 cycles

 The electronic state is 1-AG.
 Alpha  occ. eigenvalues --  -19.24067 -19.24067 -19.24066 -19.24065 -14.60881
 Alpha  occ. eigenvalues --  -14.60878  -1.32491  -1.29841  -1.16617  -1.15166
 Alpha  occ. eigenvalues --   -0.76022  -0.65888  -0.63553  -0.61951  -0.58819
 Alpha  occ. eigenvalues --   -0.58250  -0.57838  -0.51036  -0.40396  -0.39809
 Alpha  occ. eigenvalues --   -0.38877  -0.36132  -0.32423
 Alpha virt. eigenvalues --   -0.13206  -0.09865  -0.08399   0.08193   0.14608
 Alpha virt. eigenvalues --    0.16302   0.18892   0.20512   0.24613   0.25420
 Alpha virt. eigenvalues --    0.28593   0.31298   0.32149   0.32375   0.33688

 Mulliken charges:
               1
     1  N    0.432911
     2  N    0.432911
     3  O   -0.216456
     4  O   -0.216456
     5  O   -0.216456
     6  O   -0.216456
 Sum of Mulliken charges =   0.00000

 Dipole moment (field-independent basis, Debye):
    X=              0.0000    Y=              0.0000    Z=             -0.0000  Tot=              0.0000
 Quadrupole moment (field-independent basis, Debye-Ang):
   XX=            -29.4760   YY=            -36.5416   ZZ=            -34.6507
   XY=             -0.0000   XZ=             -0.0000   YZ=              0.0000

  Exact polarizability:  17.927  -0.000  47.418   0.000  -0.000  52.335
 Approx polarizability:  25.802   0.000 112.936  -0.000  -0.000  88.047

                      1                      2                      3
                     AU                     B2U                    AG
 Frequencies --     86.8339               223.0530               291.9891
 Red. masses --     15.9949                15.9223                15.4955
 Frc consts  --      0.0711                 0.4667                 0.7784
 IR Inten    --      0.0000                 0.0520                 0.0000

                      4                      5                      6
                     B3U                    B3G                    B2G
 Frequencies --    442.3973               494.0669               696.4346
 Red. masses --     14.5549                15.5601                14.2913
 Frc consts  --      1.6784                 2.2379                 4.0840
 IR Inten    --     16.0773                 0.0000                 0.0000

                      7                      8                      9
                     B1U                    AG                     B1U
 Frequencies --    760.5225               850.3317              1303.5749
 Red. masses --     15.0371                15.1358                15.4505
 Frc consts  --      5.1243                 6.4481                15.4690
 IR Inten    --    291.5152                 0.0000               501.7856

                     10                     11                     12
                     AG                     B3G                    B2U
 Frequencies --   1447.3676              1784.3891              1816.6395
 Red. masses --     15.1861                14.5492                14.6156
 Frc consts  --     18.7437                27.2941                28.4187
 IR Inten    --      0.0000                 0.0000               750.2514

 - Thermochemistry -
 -------------------
 Temperature   298.150 Kelvin.  Pressure   1.00000 Atm.
 Atom     1 has atomic number  7 and mass  14.00307

 Molecular mass:    91.98581 amu.
 Principal axes and moments of inertia in atomic units:
                           1         2         3
     Eigenvalues --   273.46896 503.88020 777.34915
           X            0.00000   0.00000   1.00000
           Y            0.00000   1.00000  -0.00000
           Z            1.00000  -0.00000  -0.00000
 This molecule is an asymmetric top.
 Rotational symmetry number  4.
 Rotational temperatures (Kelvin)      0.31672     0.17189     0.11142
 Rotational constants (GHZ):           6.59944     3.58169     2.32166
 Zero-point vibrational energy      60995.2 (Joules/Mol)
                                   14.57820 (Kcal/Mol)
 Warning -- explicit consideration of   5 degrees of freedom as
           vibrations may cause significant error
 Vibrational temperatures:    124.93   320.92   420.11   636.51   710.85
          (Kelvin)           1002.01  1094.22  1223.44  1875.55  2082.44
                             2567.34  2613.74

 Zero-point correction=                           0.023232 (Hartree/Particle)
 Thermal correction to Energy=                    0.028569
 Thermal correction to Enthalpy=                  0.029513
 Thermal correction to Gibbs Free Energy=        -0.004828
 Sum of electronic and zero-point Energies=           -410.326296
 Sum of electronic and thermal Energies=              -410.320959
 Sum of electronic and thermal Enthalpies=            -410.320015
 Sum of electronic and thermal Free Energies=         -410.354356

                     E (Thermal)             CV                S
                      KCal/Mol        Cal/Mol-Kelvin    Cal/Mol-Kelvin
 Total                   17.927             16.468             72.278
 Electronic               0.000              0.000              0.000
 Translational            0.889              2.981             39.469
 Rotational               0.889              2.981             23.419
 Vibrational             16.150             10.506              9.389
 Vibration     1          0.601              1.958              3.730
 Vibration     2          0.649              1.806              1.934
 Vibration     3          0.687              1.689              1.462
 Vibration     4          0.802              1.378              0.819
 Vibration     5          0.850              1.263              0.673

 Optimization completed.
    -- Stationary point found.
 Normal termination of Gaussian 16 at Fri Jun 17 14:24:31 2022.
