 Gaussian 16, Revision B.01,

 ---------------------------------------
 # b3lyp/gen opt freq CPHF(Grid=OneStep)
 ---------------------------------------

 -----------------------------------
 dinitrogen pentoxide, B3LYP/pcseg-2
 -----------------------------------
 Symbolic Z-matrix:
 Charge =  0 Multiplicity = 1

 SCF Done:  E(RB3LYP) =  -485.537911039     A.U. after   14 cycles
 SCF Done:  E(RB3LYP) =  -485.537910668     A.U. after    8 cycles
 SCF Done:  E(RB3LYP) =  -485.537910585     A.U. after    9 cycles
 SCF Done:  E(RB3LYP) =  -485.537911087     A.U. after    8 cycles
 Optimization completed.
    -- Stationary point found.
 Normal termination of Gaussian 16 at Sat Sep 30 16:32:21 2023.

 ------------------------------------------------------------------
 #N Geom=AllCheck Guess=TCheck SCRF=Check GenChk RB3LYP/ChkBas Freq
 ------------------------------------------------------------------

 Structure from the checkpoint file:  "n2o5.chk"
 -----------------------------------
 dinitrogen pentoxide, B3LYP/pcseg-2
 -----------------------------------
 Charge =  0 Multiplicity = 1

 SCF Done:  E(RB3LYP) =  -485.537911087     A.U. after    1 cycles

  Exact polarizability:  28.326   6.254  59.244   0.000   0.000  41.255
 Approx polarizability:  50.133  18.078  90.936   0.000   0.000  88.040

                      1                      2                      3
                      B                      A                      A
 Frequencies --     44.0147                61.7202               214.6453
 Red. masses --     15.9705                15.9591                15.8059
 Frc consts  --      0.0182                 0.0358                 0.4291
 IR Inten    --      2.8819                 0.3574                 0.4785

                      4                      5                      6
                      B                      A                      B
 Frequencies --    336.6507               380.1531               564.0887
 Red. masses --     15.3839                15.5852                15.6804
 Frc consts  --      1.0272                 1.3270                 2.9397
 IR Inten    --    371.9067                 1.7392               284.2845

                      7                      8                      9
                      A                      B                      B
 Frequencies --    681.4827               739.5939               756.1064
 Red. masses --     15.1887                14.5067                15.2630
 Frc consts  --      4.1561                 4.6753                 5.1411
 IR Inten    --      0.0633                26.6224               279.5407

                     10                     11                     12
                      A                      A                      B
 Frequencies --    811.7501               887.3317              1293.7287
 Red. masses --     14.9586                15.1631                15.6246
 Frc consts  --      5.8074                 7.0341                15.4080
 IR Inten    --      1.2381                29.2614               354.0698

                     13                     14                     15
                      A                      B                      A
 Frequencies --   1388.6971              1767.7647              1810.9931
 Red. masses --     15.2494                14.6002                14.5621
 Frc consts  --     17.3268                26.8818                28.1390
 IR Inten    --     43.9630               399.0213               467.6111

 - Thermochemistry -
 -------------------
 Temperature   298.150 Kelvin.  Pressure   1.00000 Atm.
 Atom     1 has atomic number  8 and mass  15.99491

 Molecular mass:   107.98072 amu.
 Principal axes and moments of inertia in atomic units:
                           1         2         3
     Eigenvalues --   269.10424 927.115971066.33105
           X            0.06407   0.00000   0.99795
           Y            0.99795   0.00000  -0.06407
           Z            0.00000   1.00000  -0.00000
 This molecule is an asymmetric top.
 Rotational symmetry number  2.
 Rotational temperatures (Kelvin)      0.32186     0.09342     0.08123
 Rotational constants (GHZ):           6.70648     1.94662     1.69248
 Zero-point vibrational energy      70213.1 (Joules/Mol)
                                   16.78134 (Kcal/Mol)
 Warning -- explicit consideration of   6 degrees of freedom as
           vibrations may cause significant error
 Vibrational temperatures:     63.33    88.80   308.83   484.37   546.96
          (Kelvin)            811.60   980.50  1064.11  1087.87  1167.93
                             1276.67  1861.39  1998.03  2543.42  2605.62

 Zero-point correction=                           0.026743 (Hartree/Particle)
 Thermal correction to Energy=                    0.033122
 Thermal correction to Enthalpy=                  0.034066
 Thermal correction to Gibbs Free Energy=        -0.004486
 Sum of electronic and zero-point Energies=           -485.511168
 Sum of electronic and thermal Energies=              -485.504789
 Sum of electronic and thermal Enthalpies=            -485.503845
 Sum of electronic and thermal Free Energies=         -485.542398

                     E (Thermal)             CV                S
                      KCal/Mol        Cal/Mol-Kelvin    Cal/Mol-Kelvin
 Total                   20.784             19.766             81.140
 Electronic               0.000              0.000              0.000
 Translational            0.889              2.981             39.947
 Rotational               0.889              2.981             25.701
 Vibrational             19.007             13.804             15.493
 Vibration     1          0.595              1.980              5.070
 Vibration     2          0.597              1.973              4.401
 Vibration     3          0.645              1.819              2.004
 Vibration     4          0.717              1.602              1.228
 Vibration     5          0.750              1.512              1.039
 Vibration     6          0.920              1.109              0.516

 Optimization completed.
    -- Stationary point found.
 Normal termination of Gaussian 16 at Sat Sep 30 16:35:39 2023.
 Gaussian 16:  ES64L-G16RevB.01 20-Dec-2017

 ---------------------------------
 # rohf/gen geom=check guess=check
 ---------------------------------

 --------------------------------------
 dinitrogen pentoxide, ROHF/cc-pVTZ-F12
 --------------------------------------
 Structure from the checkpoint file:  "n2o5.chk"
 Charge =  0 Multiplicity = 1

                         Standard orientation:
 ---------------------------------------------------------------------
 Center     Atomic      Atomic             Coordinates (Angstroms)
 Number     Number       Type             X           Y           Z
 ---------------------------------------------------------------------
      1          8           0       -0.000000   -0.000000    0.819811
      2          7           0       -0.000000    1.272694    0.009302
      3          7           0       -0.000000   -1.272694    0.009302
      4          8           0        0.531541    2.140269    0.616703
      5          8           0       -0.531541   -2.140269    0.616703
      6          8           0       -0.560902    1.232773   -1.034748
      7          8           0        0.560902   -1.232773   -1.034748
 ---------------------------------------------------------------------

 SCF Done:  E(ROHF) =  -483.051158202     A.U. after   14 cycles

 The electronic state is 1-A.
 Alpha  occ. eigenvalues --  -20.73852 -20.68306 -20.68305 -20.68297 -20.68296
 Alpha  occ. eigenvalues --  -15.97329 -15.97328  -1.73211  -1.70516  -1.51710
 Alpha  occ. eigenvalues --   -1.51172  -1.43871  -1.02166  -0.92265  -0.86731
 Alpha  occ. eigenvalues --   -0.83365  -0.82985  -0.80732  -0.80309  -0.77435
 Alpha  occ. eigenvalues --   -0.62482  -0.60137  -0.56990  -0.56453  -0.54276
 Alpha  occ. eigenvalues --   -0.53364  -0.52496
 Alpha virt. eigenvalues --    0.03827   0.05351   0.05665   0.07787   0.08591
 Alpha virt. eigenvalues --    0.09128   0.11235   0.11367   0.12388   0.13948
 Alpha virt. eigenvalues --    0.14633   0.15362   0.17156   0.18834   0.18989

 Mulliken charges and spin densities:
               1          2
     1  O   -0.114801   0.000000
     2  N    0.612213   0.000000
     3  N    0.612213   0.000000
     4  O   -0.276025   0.000000
     5  O   -0.276025   0.000000
     6  O   -0.278788   0.000000
     7  O   -0.278788   0.000000
 Sum of Mulliken charges =  -0.00000   0.00000

 Dipole moment (field-independent basis, Debye):
    X=             -0.0000    Y=             -0.0000    Z=              0.2311  Tot=              0.2311
 Quadrupole moment (field-independent basis, Debye-Ang):
   XX=            -36.6409   YY=            -41.3001   ZZ=            -40.2029
   XY=             -1.3025   XZ=             -0.0000   YZ=             -0.0000

 Normal termination of Gaussian 16 at Sat Sep 30 16:37:46 2023.
