 Gaussian 16, Revision B.01,
 Gaussian 16:  ES64L-G16RevB.01 20-Dec-2017

 --------------------
 # b3lyp/gen opt freq
 --------------------

 -----------------------------------
 dinitrogen pentoxide, B3LYP/pcseg-2
 -----------------------------------
 Symbolic Z-matrix:
 Charge =  0 Multiplicity = 1

 SCF Done:  E(RB3LYP) =  -485.537896887     A.U. after   14 cycles
 SCF Done:  E(RB3LYP) =  -485.537434333     A.U. after   14 cycles
 SCF Done:  E(RB3LYP) =  -485.537908957     A.U. after   11 cycles
 SCF Done:  E(RB3LYP) =  -485.537910801     A.U. after    9 cycles
 SCF Done:  E(RB3LYP) =  -485.537911039     A.U. after    8 cycles
 Optimization completed.
    -- Stationary point found.
 Normal termination of Gaussian 16 at Thu Jun 16 21:21:03 2022.

 ------------------------------------------------------------------
 #N Geom=AllCheck Guess=TCheck SCRF=Check GenChk RB3LYP/ChkBas Freq
 ------------------------------------------------------------------

 Structure from the checkpoint file:  "/wrk/irikura/Gau-17519.chk"
 -----------------------------------
 dinitrogen pentoxide, B3LYP/pcseg-2
 -----------------------------------
 Charge =  0 Multiplicity = 1

                         Standard orientation:
 ---------------------------------------------------------------------
 Center     Atomic      Atomic             Coordinates (Angstroms)
 Number     Number       Type             X           Y           Z
 ---------------------------------------------------------------------
      1          8           0       -0.000000   -0.000000    0.819705
      2          7           0        0.000000    1.272694    0.009158
      3          7           0       -0.000000   -1.272694    0.009158
      4          8           0        0.531382    2.140345    0.616560
      5          8           0       -0.531382   -2.140345    0.616560
      6          8           0       -0.561707    1.232957   -1.034425
      7          8           0        0.561707   -1.232957   -1.034425
 ---------------------------------------------------------------------

 SCF Done:  E(RB3LYP) =  -485.537911039     A.U. after    1 cycles

 The electronic state is 1-A.
 Alpha  occ. eigenvalues --  -19.26341 -19.24107 -19.24107 -19.24048 -19.24048
 Alpha  occ. eigenvalues --  -14.65787 -14.65787  -1.34761  -1.32759  -1.17221
 Alpha  occ. eigenvalues --   -1.16768  -1.08698  -0.77682  -0.66966  -0.64321
 Alpha  occ. eigenvalues --   -0.62733  -0.62489  -0.59648  -0.59025  -0.56609
 Alpha  occ. eigenvalues --   -0.41831  -0.41716  -0.40147  -0.39848  -0.38493
 Alpha  occ. eigenvalues --   -0.37622  -0.36233
 Alpha virt. eigenvalues --   -0.12773  -0.10844  -0.06553  -0.01092   0.08763
 Alpha virt. eigenvalues --    0.12638   0.17506   0.17681   0.21710   0.24040
 Alpha virt. eigenvalues --    0.24700   0.25611   0.26685   0.29416   0.31277

 Mulliken charges:
               1
     1  O   -0.218894
     2  N    0.587518
     3  N    0.587518
     4  O   -0.230859
     5  O   -0.230859
     6  O   -0.247213
     7  O   -0.247213
 Sum of Mulliken charges =  -0.00000

 Dipole moment (field-independent basis, Debye):
    X=              0.0000    Y=             -0.0000    Z=              0.0154  Tot=              0.0154
 Quadrupole moment (field-independent basis, Debye-Ang):
   XX=            -36.5933   YY=            -40.3847   ZZ=            -40.2080
   XY=             -1.2579   XZ=              0.0000   YZ=              0.0000

  Exact polarizability:  28.334   6.248  59.244   0.000   0.000  41.246
 Approx polarizability:  50.155  18.071  90.933  -0.000   0.000  88.006

                      1                      2                      3
                      B                      A                      A
 Frequencies --     43.8934                61.4903               214.3887
 Red. masses --     15.9703                15.9592                15.8058
 Frc consts  --      0.0181                 0.0356                 0.4280
 IR Inten    --      2.9321                 0.3570                 0.4806

                      4                      5                      6
                      B                      A                      B
 Frequencies --    336.9084               380.1105               564.0042
 Red. masses --     15.3838                15.5852                15.6805
 Frc consts  --      1.0288                 1.3267                 2.9388
 IR Inten    --    371.9083                 1.7396               284.0450

                      7                      8                      9
                      A                      B                      B
 Frequencies --    681.4220               739.5995               756.1372
 Red. masses --     15.1889                14.5079                15.2620
 Frc consts  --      4.1554                 4.6757                 5.1412
 IR Inten    --      0.0640                26.3598               280.0572

                     10                     11                     12
                      A                      A                      B
 Frequencies --    811.7584               887.3228              1293.9170
 Red. masses --     14.9586                15.1628                15.6245
 Frc consts  --      5.8076                 7.0339                15.4124
 IR Inten    --      1.2283                29.2806               354.3396

                     13                     14                     15
                      A                      B                      A
 Frequencies --   1388.8200              1768.0207              1811.1550
 Red. masses --     15.2495                14.6002                14.5621
 Frc consts  --     17.3300                26.8895                28.1441
 IR Inten    --     43.9349               399.0710               467.5268

 - Thermochemistry -
 -------------------
 Temperature   298.150 Kelvin.  Pressure   1.00000 Atm.
 Atom     1 has atomic number  8 and mass  15.99491

 Molecular mass:   107.98072 amu.
 Principal axes and moments of inertia in atomic units:
                           1         2         3
     Eigenvalues --   269.10173 927.289261066.29330
           X            0.06387   0.00000   0.99796
           Y            0.99796   0.00000  -0.06387
           Z            0.00000   1.00000  -0.00000
 This molecule is an asymmetric top.
 Rotational symmetry number  2.
 Rotational temperatures (Kelvin)      0.32186     0.09341     0.08123
 Rotational constants (GHZ):           6.70654     1.94625     1.69254
 Zero-point vibrational energy      70214.5 (Joules/Mol)
                                   16.78167 (Kcal/Mol)
 Warning -- explicit consideration of   6 degrees of freedom as
           vibrations may cause significant error
 Vibrational temperatures:     63.15    88.47   308.46   484.74   546.89
          (Kelvin)            811.48   980.41  1064.12  1087.91  1167.94
                             1276.66  1861.66  1998.20  2543.79  2605.85

 Zero-point correction=                           0.026743 (Hartree/Particle)
 Thermal correction to Energy=                    0.033123
 Thermal correction to Enthalpy=                  0.034067
 Thermal correction to Gibbs Free Energy=        -0.004492
 Sum of electronic and zero-point Energies=           -485.511168
 Sum of electronic and thermal Energies=              -485.504788
 Sum of electronic and thermal Enthalpies=            -485.503844
 Sum of electronic and thermal Free Energies=         -485.542403

                     E (Thermal)             CV                S
                      KCal/Mol        Cal/Mol-Kelvin    Cal/Mol-Kelvin
 Total                   20.785             19.766             81.155
 Electronic               0.000              0.000              0.000
 Translational            0.889              2.981             39.947
 Rotational               0.889              2.981             25.701
 Vibrational             19.008             13.804             15.507
 Vibration     1          0.595              1.980              5.075
 Vibration     2          0.597              1.973              4.409
 Vibration     3          0.644              1.819              2.006
 Vibration     4          0.718              1.602              1.227
 Vibration     5          0.750              1.513              1.039
 Vibration     6          0.920              1.109              0.516

 Optimization completed.
    -- Stationary point found.
 Normal termination of Gaussian 16 at Thu Jun 16 21:22:02 2022.
