 Gaussian 16, Revision B.01,
 Gaussian 16:  ES64L-G16RevB.01 20-Dec-2017

 --------------------
 # b3lyp/gen opt freq
 --------------------

 ----------------------------
 nitrous oxide, B3LYP/pcseg-2
 ----------------------------
 Symbolic Z-matrix:
 Charge =  0 Multiplicity = 1

 SCF Done:  E(RB3LYP) =  -184.740947652     A.U. after   12 cycles
 SCF Done:  E(RB3LYP) =  -184.741060721     A.U. after    9 cycles
 SCF Done:  E(RB3LYP) =  -184.741063799     A.U. after    8 cycles
 Optimization completed.
    -- Stationary point found.
 Normal termination of Gaussian 16 at Wed Jun 15 16:37:30 2022.

 ------------------------------------------------------------------
 #N Geom=AllCheck Guess=TCheck SCRF=Check GenChk RB3LYP/ChkBas Freq
 ------------------------------------------------------------------

 Structure from the checkpoint file:  "/wrk/irikura/Gau-29714.chk"
 ----------------------------
 nitrous oxide, B3LYP/pcseg-2
 ----------------------------
 Charge =  0 Multiplicity = 1

                         Standard orientation:
 ---------------------------------------------------------------------
 Center     Atomic      Atomic             Coordinates (Angstroms)
 Number     Number       Type             X           Y           Z
 ---------------------------------------------------------------------
      1          7           0        0.000000    0.000000   -1.194607
      2          7           0        0.000000    0.000000   -0.073711
      3          8           0        0.000000    0.000000    1.109778
 ---------------------------------------------------------------------

 SCF Done:  E(RB3LYP) =  -184.741063799     A.U. after    1 cycles

 The electronic state is 1-SG.
 Alpha  occ. eigenvalues --  -19.23070 -14.54986 -14.41944  -1.25548  -1.10042
 Alpha  occ. eigenvalues --   -0.61281  -0.57618  -0.57618  -0.48661  -0.35400
 Alpha  occ. eigenvalues --   -0.35400
 Alpha virt. eigenvalues --   -0.02593  -0.02593   0.05463   0.17665   0.21983
 Alpha virt. eigenvalues --    0.21983   0.24485   0.26866   0.32998   0.32998
 Alpha virt. eigenvalues --    0.37871   0.44388   0.44388   0.64635   0.81236

 Mulliken charges:
               1
     1  N   -0.111648
     2  N    0.427405
     3  O   -0.315757
 Sum of Mulliken charges =  -0.00000

 Dipole moment (field-independent basis, Debye):
    X=              0.0000    Y=              0.0000    Z=             -0.0914  Tot=              0.0914
 Quadrupole moment (field-independent basis, Debye-Ang):
   XX=            -15.3199   YY=            -15.3199   ZZ=            -19.4344
   XY=              0.0000   XZ=              0.0000   YZ=              0.0000

  Exact polarizability:  10.177   0.000  10.177   0.000   0.000  31.622
 Approx polarizability:  13.434  -0.000  13.434  -0.000  -0.000  72.601

                      1                      2                      3
                     PI                     PI                     SG
 Frequencies --    614.7977               614.7977              1328.5745
 Red. masses --     14.2530                14.2530                15.1128
 Frc consts  --      3.1741                 3.1741                15.7169
 IR Inten    --      5.8901                 5.8901                69.5836

                      4
                     SG
 Frequencies --   2342.1612
 Red. masses --     14.0852
 Frc consts  --     45.5248
 IR Inten    --    397.1920

 - Thermochemistry -
 -------------------
 Temperature   298.150 Kelvin.  Pressure   1.00000 Atm.
 Atom     1 has atomic number  7 and mass  14.00307

 Molecular mass:    44.00106 amu.
 Principal axes and moments of inertia in atomic units:
                           1         2         3
     Eigenvalues --     0.00000 141.98239 141.98239
           X            0.00000  -0.00000   1.00000
           Y            0.00000   1.00000   0.00000
           Z            1.00000   0.00000   0.00000
 This molecule is a prolate symmetric top.
 Rotational symmetry number  1.
 Rotational temperature (Kelvin)      0.61003
 Rotational constant (GHZ):          12.711021
 Zero-point vibrational energy      29310.5 (Joules/Mol)
                                    7.00537 (Kcal/Mol)
 Warning -- explicit consideration of   2 degrees of freedom as
           vibrations may cause significant error
 Vibrational temperatures:    884.56   884.56  1911.52  3369.85
          (Kelvin)

 Zero-point correction=                           0.011164 (Hartree/Particle)
 Thermal correction to Energy=                    0.013838
 Thermal correction to Enthalpy=                  0.014783
 Thermal correction to Gibbs Free Energy=        -0.010132
 Sum of electronic and zero-point Energies=           -184.729900
 Sum of electronic and thermal Energies=              -184.727225
 Sum of electronic and thermal Enthalpies=            -184.726281
 Sum of electronic and thermal Free Energies=         -184.751196

                     E (Thermal)             CV                S
                      KCal/Mol        Cal/Mol-Kelvin    Cal/Mol-Kelvin
 Total                    8.684              7.107             52.437
 Electronic               0.000              0.000              0.000
 Translational            0.889              2.981             37.271
 Rotational               0.592              1.987             14.292
 Vibrational              7.202              2.139              0.874
 Vibration     1          0.974              1.001              0.425
 Vibration     2          0.974              1.001              0.425

 Optimization completed.
    -- Stationary point found.
 Normal termination of Gaussian 16 at Wed Jun 15 16:37:37 2022.
