 Gaussian 16, Revision B.01,
 Gaussian 16:  ES64L-G16RevB.01 20-Dec-2017

 --------------------
 # b3lyp/gen opt freq
 --------------------

 ----------------------------
 nitrogen atom, B3LYP/pcseg-2
 ----------------------------
 Symbolic Z-matrix:
 Charge =  0 Multiplicity = 4

 SCF Done:  E(UB3LYP) =  -54.6033823841     A.U. after    7 cycles
 Optimization completed.
    -- Stationary point found.
 Normal termination of Gaussian 16 at Thu Jun 23 09:28:09 2022.

 ------------------------------------------------------------------
 #N Geom=AllCheck Guess=TCheck SCRF=Check GenChk UB3LYP/ChkBas Freq
 ------------------------------------------------------------------

 Structure from the checkpoint file:  "/wrk/irikura/Gau-5766.chk"
 ----------------------------
 nitrogen atom, B3LYP/pcseg-2
 ----------------------------
 Charge =  0 Multiplicity = 4

                         Standard orientation:
 ---------------------------------------------------------------------
 Center     Atomic      Atomic             Coordinates (Angstroms)
 Number     Number       Type             X           Y           Z
 ---------------------------------------------------------------------
      1          7           0        0.000000    0.000000    0.000000
 ---------------------------------------------------------------------

 SCF Done:  E(UB3LYP) =  -54.6033823841     A.U. after    1 cycles

 The electronic state is 4-A1G.
 Alpha  occ. eigenvalues --  -14.43754  -0.81273  -0.35917  -0.35917  -0.35917
 Alpha virt. eigenvalues --    0.19722   0.25539   0.25539   0.25539   1.13796
 Alpha virt. eigenvalues --    1.13796   1.13796   1.13796   1.13796   1.71923
 Alpha virt. eigenvalues --    1.71923   1.71923   2.06761   3.54880   3.54880

  Beta  occ. eigenvalues --  -14.37723  -0.61764
  Beta virt. eigenvalues --   -0.11465  -0.11465  -0.11465   0.23602   0.31114
  Beta virt. eigenvalues --    0.31114   0.31114   1.24704   1.24704   1.24704
  Beta virt. eigenvalues --    1.24704   1.24704   1.83779   1.83779   1.83779

 Mulliken charges and spin densities:
               1          2
     1  N   -0.000000   3.000000
 Sum of Mulliken charges =  -0.00000   3.00000

 Dipole moment (field-independent basis, Debye):
    X=              0.0000    Y=              0.0000    Z=              0.0000  Tot=              0.0000
 Quadrupole moment (field-independent basis, Debye-Ang):
   XX=             -5.5714   YY=             -5.5714   ZZ=             -5.5714
   XY=             -0.0000   XZ=              0.0000   YZ=             -0.0000

  Exact polarizability:   5.229   0.000   5.229   0.000   0.000   5.229
 Approx polarizability:   5.709  -0.000   5.709  -0.000  -0.000   5.709

 - Thermochemistry -
 -------------------
 Temperature   298.150 Kelvin.  Pressure   1.00000 Atm.
 Atom     1 has atomic number  7 and mass  14.00307
 Molecular mass:    14.00307 amu.
 Zero-point vibrational energy          0.0 (Joules/Mol)
                                    0.00000 (Kcal/Mol)
 Vibrational temperatures:
          (Kelvin)

 Zero-point correction=                           0.000000 (Hartree/Particle)
 Thermal correction to Energy=                    0.001416
 Thermal correction to Enthalpy=                  0.002360
 Thermal correction to Gibbs Free Energy=        -0.015036
 Sum of electronic and zero-point Energies=            -54.603382
 Sum of electronic and thermal Energies=               -54.601966
 Sum of electronic and thermal Enthalpies=             -54.601022
 Sum of electronic and thermal Free Energies=          -54.618418

                     E (Thermal)             CV                S
                      KCal/Mol        Cal/Mol-Kelvin    Cal/Mol-Kelvin
 Total                    0.889              2.981             36.613
 Electronic               0.000              0.000              2.755
 Translational            0.889              2.981             33.858
 Rotational               0.000              0.000              0.000
 Vibrational              0.000              0.000              0.000

 Optimization completed.
    -- Stationary point found.
 Normal termination of Gaussian 16 at Thu Jun 23 09:28:12 2022.
