 Gaussian 16, Revision B.01,
 Gaussian 16:  ES64L-G16RevB.01 20-Dec-2017

 --------------------
 # b3lyp/gen opt freq
 --------------------

 --------------------------
 naphthalene, B3LYP/pcseg-2
 --------------------------
 Symbolic Z-matrix:
 Charge =  0 Multiplicity = 1

 SCF Done:  E(RB3LYP) =  -386.035357113     A.U. after   13 cycles
 SCF Done:  E(RB3LYP) =  -386.035514290     A.U. after    8 cycles
 Optimization completed.
    -- Stationary point found.
 Normal termination of Gaussian 16 at Thu Jun 16 15:16:00 2022.

 ------------------------------------------------------------------
 #N Geom=AllCheck Guess=TCheck SCRF=Check GenChk RB3LYP/ChkBas Freq
 ------------------------------------------------------------------

 Structure from the checkpoint file:  "/wrk/irikura/Gau-20267.chk"
 --------------------------
 naphthalene, B3LYP/pcseg-2
 --------------------------
 Charge =  0 Multiplicity = 1

                         Standard orientation:
 ---------------------------------------------------------------------
 Center     Atomic      Atomic             Coordinates (Angstroms)
 Number     Number       Type             X           Y           Z
 ---------------------------------------------------------------------
      1          6           0        0.000000    1.240534    1.396987
      2          6           0        0.000000    2.423633    0.705763
      3          6           0        0.000000    2.423633   -0.705763
      4          6           0        0.000000    1.240534   -1.396987
      5          6           0       -0.000000   -1.240534   -1.396987
      6          6           0       -0.000000   -2.423633   -0.705763
      7          6           0       -0.000000   -2.423633    0.705763
      8          6           0       -0.000000   -1.240534    1.396987
      9          6           0        0.000000    0.000000    0.713929
     10          6           0        0.000000    0.000000   -0.713929
     11          1           0        0.000000    1.239465    2.479641
     12          1           0        0.000000    3.364137    1.239978
     13          1           0        0.000000    3.364137   -1.239978
     14          1           0        0.000000    1.239465   -2.479641
     15          1           0       -0.000000   -1.239465   -2.479641
     16          1           0       -0.000000   -3.364137   -1.239978
     17          1           0       -0.000000   -3.364137    1.239978
     18          1           0       -0.000000   -1.239465    2.479641
 ---------------------------------------------------------------------

 SCF Done:  E(RB3LYP) =  -386.035514290     A.U. after    1 cycles

 The electronic state is 1-AG.
 Alpha  occ. eigenvalues --  -10.18654 -10.18608 -10.17848 -10.17846 -10.17834
 Alpha  occ. eigenvalues --  -10.17832 -10.17777 -10.17776 -10.17740 -10.17739
 Alpha  occ. eigenvalues --   -0.88064  -0.82768  -0.77915  -0.74644  -0.72486
 Alpha  occ. eigenvalues --   -0.63135  -0.61743  -0.60211  -0.52203  -0.51533
 Alpha  occ. eigenvalues --   -0.50128  -0.45336  -0.44812  -0.42402  -0.42395
 Alpha  occ. eigenvalues --   -0.40665  -0.39984  -0.37556  -0.34568  -0.33712
 Alpha  occ. eigenvalues --   -0.33702  -0.29473  -0.25353  -0.22606
 Alpha virt. eigenvalues --   -0.05058  -0.02272   0.00950   0.01678   0.02820
 Alpha virt. eigenvalues --    0.03056   0.05496   0.05556   0.07495   0.08267
 Alpha virt. eigenvalues --    0.08632   0.11899   0.12909   0.13788   0.15279

 Mulliken charges:
               1
     1  C   -0.184550
     2  C   -0.010239
     3  C   -0.010239
     4  C   -0.184550
     5  C   -0.184550
     6  C   -0.010239
     7  C   -0.010239
     8  C   -0.184550
     9  C    0.343900
    10  C    0.343900
    11  H    0.004346
    12  H    0.018494
    13  H    0.018494
    14  H    0.004346
    15  H    0.004346
    16  H    0.018494
    17  H    0.018494
    18  H    0.004346
 Sum of Mulliken charges =  -0.00000

 Dipole moment (field-independent basis, Debye):
    X=              0.0000    Y=              0.0000    Z=              0.0000  Tot=              0.0000
 Quadrupole moment (field-independent basis, Debye-Ang):
   XX=            -64.1650   YY=            -52.2502   ZZ=            -52.3609
   XY=             -0.0000   XZ=              0.0000   YZ=             -0.0000

  Exact polarizability:  59.705   0.000 166.745  -0.000  -0.000 120.225
 Approx polarizability:  96.088   0.000 280.957  -0.000  -0.000 211.869

                      1                      2                      3
                     B3U                    AU                     B1U
 Frequencies --    171.1926               184.9182               366.4946
 Red. masses --      4.1621                 3.4263                 3.8168
 Frc consts  --      0.0719                 0.0690                 0.3021
 IR Inten    --      2.6401                 0.0000                 1.5115

                      4                      5                      6
                     B1G                    B2G                    B3U
 Frequencies --    396.2836               480.5129               487.7141
 Red. masses --      3.1147                 3.2488                 2.4708
 Frc consts  --      0.2882                 0.4420                 0.3463
 IR Inten    --      0.0000                 0.0000                22.2631

                      7                      8                      9
                     B3G                    AG                     B2U
 Frequencies --    519.9132               521.2908               637.5808
 Red. masses --      7.0809                 6.6109                 6.4496
 Frc consts  --      1.1277                 1.0584                 1.5447
 IR Inten    --      0.0000                 0.0000                 3.2819

                     10                     11                     12
                     AU                     B1G                    AG
 Frequencies --    638.4376               732.0041               775.6800
 Red. masses --      3.2901                 1.1455                 4.5577
 Frc consts  --      0.7901                 0.3616                 1.6157
 IR Inten    --      0.0000                 0.0000                 0.0000

                     13                     14                     15
                     B2G                    B3U                    B1U
 Frequencies --    789.1951               803.4418               811.7424
 Red. masses --      2.8627                 1.3613                 5.3737
 Frc consts  --      1.0505                 0.5177                 2.0862
 IR Inten    --      0.0000               119.4430                 0.2215

                     16                     17                     18
                     AU                     B2G                    B3G
 Frequencies --    853.2671               904.0651               956.1218
 Red. masses --      1.2621                 1.7923                 5.0610
 Frc consts  --      0.5414                 0.8631                 2.7259
 IR Inten    --      0.0000                 0.0000                 0.0000

                     19                     20                     21
                     B1G                    B3U                    AU
 Frequencies --    971.4180               990.7410              1005.7669
 Red. masses --      1.3188                 1.3999                 1.3106
 Frc consts  --      0.7332                 0.8096                 0.7811
 IR Inten    --      0.0000                 3.6790                 0.0000

                     22                     23                     24
                     B2G                    B2U                    AG
 Frequencies --   1010.4955              1037.1639              1047.5083
 Red. masses --      1.3142                 2.6601                 2.1467
 Frc consts  --      0.7906                 1.6859                 1.3878
 IR Inten    --      0.0000                 8.4466                 0.0000

                     25                     26                     27
                     B1U                    B2U                    B3G
 Frequencies --   1154.3534              1170.9580              1174.0651
 Red. masses --      1.7002                 1.2922                 1.2697
 Frc consts  --      1.3349                 1.0439                 1.0312
 IR Inten    --      4.9182                 0.7556                 0.0000

                     28                     29                     30
                     AG                     B2U                    B3G
 Frequencies --   1187.1569              1234.0025              1275.1410
 Red. masses --      1.0765                 1.9835                 1.6405
 Frc consts  --      0.8939                 1.7795                 1.5716
 IR Inten    --      0.0000                 0.6253                 0.0000

                     31                     32                     33
                     B1U                    B2U                    AG
 Frequencies --   1291.3437              1392.7807              1396.7730
 Red. masses --      1.8760                 3.4555                 8.6120
 Frc consts  --      1.8432                 3.9494                 9.8993
 IR Inten    --      6.5799                 0.6517                 0.0000

                     34                     35                     36
                     B1U                    B3G                    AG
 Frequencies --   1424.7403              1495.4568              1496.0069
 Red. masses --      1.5792                 2.3259                 1.9043
 Frc consts  --      1.8886                 3.0647                 2.5110
 IR Inten    --      4.1830                 0.0000                 0.0000

                     37                     38                     39
                     B2U                    AG                     B1U
 Frequencies --   1550.2235              1612.8656              1641.0144
 Red. masses --      3.1631                 6.7818                 4.8456
 Frc consts  --      4.4787                10.3942                 7.6882
 IR Inten    --      8.1634                 0.0000                 3.1183

                     40                     41                     42
                     B3G                    B3G                    B1U
 Frequencies --   1668.7165              3162.4412              3164.2822
 Red. masses --      5.9538                 1.0857                 1.0856
 Frc consts  --      9.7681                 6.3975                 6.4042
 IR Inten    --      0.0000                 0.0000                 5.8486

                     43                     44                     45
                     B2U                    AG                     B3G
 Frequencies --   3166.2133              3169.6162              3180.4645
 Red. masses --      1.0883                 1.0876                 1.0929
 Frc consts  --      6.4283                 6.4377                 6.5136
 IR Inten    --      0.6824                 0.0000                 0.0000

                     46                     47                     48
                     B1U                    B2U                    AG
 Frequencies --   3181.6391              3193.1749              3194.1085
 Red. masses --      1.0929                 1.0969                 1.0965
 Frc consts  --      6.5185                 6.5896                 6.5911
 IR Inten    --     50.8221                37.6042                 0.0000

 - Thermochemistry -
 -------------------
 Temperature   298.150 Kelvin.  Pressure   1.00000 Atm.
 Atom     1 has atomic number  6 and mass  12.00000

 Molecular mass:   128.06260 amu.
 Principal axes and moments of inertia in atomic units:
                           1         2         3
     Eigenvalues --   574.235671455.699342029.93501
           X           -0.00000   0.00000   1.00000
           Y            1.00000   0.00000  -0.00000
           Z           -0.00000   1.00000  -0.00000
 This molecule is an asymmetric top.
 Rotational symmetry number  4.
 Warning -- assumption of classical behavior for rotation
           may cause significant error
 Rotational temperatures (Kelvin)      0.15083     0.05950     0.04267
 Rotational constants (GHZ):           3.14286     1.23978     0.88906
 Zero-point vibrational energy     386815.4 (Joules/Mol)
                                   92.45110 (Kcal/Mol)
 Warning -- explicit consideration of   8 degrees of freedom as
           vibrations may cause significant error
 Vibrational temperatures:    246.31   266.06   527.30   570.16   691.35
          (Kelvin)            701.71   748.04   750.02   917.34   918.57
                             1053.19  1116.03  1135.48  1155.97  1167.92
                             1227.66  1300.75  1375.65  1397.65  1425.46
                             1447.07  1453.88  1492.25  1507.13  1660.86
                             1684.75  1689.22  1708.05  1775.45  1834.64
                             1857.96  2003.90  2009.64  2049.88  2151.63
                             2152.42  2230.43  2320.55  2361.05  2400.91
                             4550.05  4552.70  4555.47  4560.37  4575.98
                             4577.67  4594.27  4595.61

 Zero-point correction=                           0.147330 (Hartree/Particle)
 Thermal correction to Energy=                    0.154135
 Thermal correction to Enthalpy=                  0.155079
 Thermal correction to Gibbs Free Energy=         0.117427
 Sum of electronic and zero-point Energies=           -385.888184
 Sum of electronic and thermal Energies=              -385.881379
 Sum of electronic and thermal Enthalpies=            -385.880435
 Sum of electronic and thermal Free Energies=         -385.918087

                     E (Thermal)             CV                S
                      KCal/Mol        Cal/Mol-Kelvin    Cal/Mol-Kelvin
 Total                   96.721             28.758             79.245
 Electronic               0.000              0.000              0.000
 Translational            0.889              2.981             40.455
 Rotational               0.889              2.981             26.164
 Vibrational             94.944             22.796             12.626
 Vibration     1          0.626              1.878              2.422
 Vibration     2          0.631              1.860              2.278
 Vibration     3          0.739              1.541              1.094
 Vibration     4          0.763              1.478              0.976
 Vibration     5          0.837              1.293              0.709
 Vibration     6          0.844              1.277              0.690
 Vibration     7          0.875              1.206              0.610
 Vibration     8          0.876              1.203              0.607

 Optimization completed.
    -- Stationary point found.
 Normal termination of Gaussian 16 at Thu Jun 16 15:22:20 2022.
