 Gaussian 16, Revision B.01,

 ---------------------------------------
 # b3lyp/gen opt freq CPHF(Grid=OneStep)
 ---------------------------------------

 --------------------------
 naphthalene, B3LYP/pcseg-2
 --------------------------
 Symbolic Z-matrix:
 Charge =  0 Multiplicity = 1

 SCF Done:  E(RB3LYP) =  -386.035514288     A.U. after   13 cycles
 Optimization completed.
    -- Stationary point found.
 Normal termination of Gaussian 16 at Wed Sep 27 15:26:23 2023.

 ------------------------------------------------------------------
 #N Geom=AllCheck Guess=TCheck SCRF=Check GenChk RB3LYP/ChkBas Freq
 ------------------------------------------------------------------

 Structure from the checkpoint file:  "naphthalene.chk"
 --------------------------
 naphthalene, B3LYP/pcseg-2
 --------------------------
 Charge =  0 Multiplicity = 1

 SCF Done:  E(RB3LYP) =  -386.035514288     A.U. after    1 cycles

  Exact polarizability:  59.707  -0.000 166.744  -0.000  -0.000 120.224
 Approx polarizability:  96.088   0.000 280.957  -0.000  -0.000 211.869

                      1                      2                      3
                     B3U                    AU                     B1U
 Frequencies --    171.1951               184.9195               366.4912
 Red. masses --      4.1622                 3.4263                 3.8167
 Frc consts  --      0.0719                 0.0690                 0.3020
 IR Inten    --      2.6393                 0.0000                 1.5116

                      4                      5                      6
                     B1G                    B2G                    B3U
 Frequencies --    396.2841               480.5117               487.7181
 Red. masses --      3.1147                 3.2488                 2.4708
 Frc consts  --      0.2882                 0.4420                 0.3463
 IR Inten    --      0.0000                 0.0000                22.2660

                      7                      8                      9
                     B3G                    AG                     B2U
 Frequencies --    519.9103               521.2922               637.5882
 Red. masses --      7.0809                 6.6109                 6.4495
 Frc consts  --      1.1277                 1.0585                 1.5448
 IR Inten    --      0.0000                 0.0000                 3.2821

                     10                     11                     12
                     AU                     B1G                    AG
 Frequencies --    638.4386               732.0076               775.6811
 Red. masses --      3.2901                 1.1455                 4.5576
 Frc consts  --      0.7901                 0.3617                 1.6157
 IR Inten    --      0.0000                 0.0000                 0.0000

                     13                     14                     15
                     B2G                    B3U                    B1U
 Frequencies --    789.1981               803.4464               811.7403
 Red. masses --      2.8627                 1.3613                 5.3737
 Frc consts  --      1.0505                 0.5177                 2.0862
 IR Inten    --      0.0000               119.4481                 0.2216

                     16                     17                     18
                     AU                     B2G                    B3G
 Frequencies --    853.2699               904.0659               956.1208
 Red. masses --      1.2621                 1.7923                 5.0610
 Frc consts  --      0.5414                 0.8631                 2.7259
 IR Inten    --      0.0000                 0.0000                 0.0000

                     19                     20                     21
                     B1G                    B3U                    AU
 Frequencies --    971.4199               990.7412              1005.7659
 Red. masses --      1.3188                 1.3999                 1.3106
 Frc consts  --      0.7332                 0.8096                 0.7811
 IR Inten    --      0.0000                 3.6815                 0.0000

                     22                     23                     24
                     B2G                    B2U                    AG
 Frequencies --   1010.4947              1037.1710              1047.5119
 Red. masses --      1.3142                 2.6601                 2.1467
 Frc consts  --      0.7906                 1.6860                 1.3878
 IR Inten    --      0.0000                 8.4466                 0.0000

                     25                     26                     27
                     B1U                    B2U                    B3G
 Frequencies --   1154.3551              1170.9687              1174.0721
 Red. masses --      1.7002                 1.2922                 1.2698
 Frc consts  --      1.3349                 1.0439                 1.0312
 IR Inten    --      4.9200                 0.7555                 0.0000

                     28                     29                     30
                     AG                     B2U                    B3G
 Frequencies --   1187.1591              1234.0074              1275.1544
 Red. masses --      1.0765                 1.9836                 1.6404
 Frc consts  --      0.8939                 1.7797                 1.5715
 IR Inten    --      0.0000                 0.6254                 0.0000

                     31                     32                     33
                     B1U                    B2U                    AG
 Frequencies --   1291.3433              1392.7859              1396.7755
 Red. masses --      1.8760                 3.4553                 8.6128
 Frc consts  --      1.8432                 3.9491                 9.9003
 IR Inten    --      6.5797                 0.6506                 0.0000

                     34                     35                     36
                     B1U                    B3G                    AG
 Frequencies --   1424.7421              1495.4640              1496.0095
 Red. masses --      1.5792                 2.3260                 1.9042
 Frc consts  --      1.8887                 3.0648                 2.5110
 IR Inten    --      4.1812                 0.0000                 0.0000

                     37                     38                     39
                     B2U                    AG                     B1U
 Frequencies --   1550.2316              1612.8650              1641.0149
 Red. masses --      3.1630                 6.7817                 4.8456
 Frc consts  --      4.4786                10.3941                 7.6881
 IR Inten    --      8.1570                 0.0000                 3.1154

                     40                     41                     42
                     B3G                    B3G                    B1U
 Frequencies --   1668.7158              3162.4608              3164.2855
 Red. masses --      5.9537                 1.0857                 1.0856
 Frc consts  --      9.7680                 6.3976                 6.4042
 IR Inten    --      0.0000                 0.0000                 5.8467

                     43                     44                     45
                     B2U                    AG                     B3G
 Frequencies --   3166.2378              3169.6193              3180.4750
 Red. masses --      1.0883                 1.0876                 1.0929
 Frc consts  --      6.4284                 6.4377                 6.5136
 IR Inten    --      0.6821                 0.0000                 0.0000

                     46                     47                     48
                     B1U                    B2U                    AG
 Frequencies --   3181.6421              3193.1801              3194.1112
 Red. masses --      1.0929                 1.0969                 1.0965
 Frc consts  --      6.5185                 6.5896                 6.5911
 IR Inten    --     50.8153                37.6053                 0.0000

 - Thermochemistry -
 -------------------
 Temperature   298.150 Kelvin.  Pressure   1.00000 Atm.
 Atom     1 has atomic number  6 and mass  12.00000

 Molecular mass:   128.06260 amu.
 Principal axes and moments of inertia in atomic units:
                           1         2         3
     Eigenvalues --   574.235311455.699302029.93461
           X            0.00000   0.00000   1.00000
           Y            1.00000   0.00000  -0.00000
           Z            0.00000   1.00000   0.00000
 This molecule is an asymmetric top.
 Rotational symmetry number  4.
 Warning -- assumption of classical behavior for rotation
           may cause significant error
 Rotational temperatures (Kelvin)      0.15083     0.05950     0.04267
 Rotational constants (GHZ):           3.14286     1.23978     0.88906
 Zero-point vibrational energy     386816.4 (Joules/Mol)
                                   92.45135 (Kcal/Mol)
 Warning -- explicit consideration of   8 degrees of freedom as
           vibrations may cause significant error
 Vibrational temperatures:    246.31   266.06   527.30   570.16   691.35
          (Kelvin)            701.72   748.04   750.02   917.35   918.57
                             1053.20  1116.03  1135.48  1155.98  1167.91
                             1227.67  1300.75  1375.64  1397.66  1425.46
                             1447.07  1453.88  1492.26  1507.14  1660.86
                             1684.76  1689.23  1708.06  1775.46  1834.66
                             1857.96  2003.91  2009.65  2049.89  2151.64
                             2152.42  2230.44  2320.55  2361.05  2400.91
                             4550.08  4552.70  4555.51  4560.38  4575.99
                             4577.67  4594.27  4595.61

 Zero-point correction=                           0.147331 (Hartree/Particle)
 Thermal correction to Energy=                    0.154135
 Thermal correction to Enthalpy=                  0.155080
 Thermal correction to Gibbs Free Energy=         0.117428
 Sum of electronic and zero-point Energies=           -385.888184
 Sum of electronic and thermal Energies=              -385.881379
 Sum of electronic and thermal Enthalpies=            -385.880435
 Sum of electronic and thermal Free Energies=         -385.918087

                     E (Thermal)             CV                S
                      KCal/Mol        Cal/Mol-Kelvin    Cal/Mol-Kelvin
 Total                   96.721             28.758             79.245
 Electronic               0.000              0.000              0.000
 Translational            0.889              2.981             40.455
 Rotational               0.889              2.981             26.164
 Vibrational             94.944             22.796             12.626
 Vibration     1          0.626              1.878              2.422
 Vibration     2          0.631              1.860              2.278
 Vibration     3          0.739              1.541              1.094
 Vibration     4          0.763              1.478              0.976
 Vibration     5          0.837              1.293              0.709
 Vibration     6          0.844              1.277              0.690
 Vibration     7          0.875              1.206              0.610
 Vibration     8          0.876              1.203              0.607

 Optimization completed.
    -- Stationary point found.
 Normal termination of Gaussian 16 at Wed Sep 27 15:49:34 2023.
 Gaussian 16:  ES64L-G16RevB.01 20-Dec-2017

 ---------------------------------
 # rohf/gen geom=check guess=check
 ---------------------------------

 -----------------------------
 naphthalene, ROHF/cc-pVTZ-F12
 -----------------------------
 Structure from the checkpoint file:  "naphthalene.chk"
 Charge =  0 Multiplicity = 1

                         Standard orientation:
 ---------------------------------------------------------------------
 Center     Atomic      Atomic             Coordinates (Angstroms)
 Number     Number       Type             X           Y           Z
 ---------------------------------------------------------------------
      1          6           0        0.000000    1.240534    1.396987
      2          6           0        0.000000    2.423633    0.705763
      3          6           0        0.000000    2.423633   -0.705763
      4          6           0        0.000000    1.240534   -1.396987
      5          6           0       -0.000000   -1.240534   -1.396987
      6          6           0       -0.000000   -2.423633   -0.705763
      7          6           0       -0.000000   -2.423633    0.705763
      8          6           0       -0.000000   -1.240534    1.396987
      9          6           0        0.000000    0.000000    0.713929
     10          6           0        0.000000    0.000000   -0.713929
     11          1           0        0.000000    1.239465    2.479641
     12          1           0        0.000000    3.364137    1.239978
     13          1           0        0.000000    3.364137   -1.239978
     14          1           0        0.000000    1.239465   -2.479641
     15          1           0       -0.000000   -1.239465   -2.479641
     16          1           0       -0.000000   -3.364137   -1.239978
     17          1           0       -0.000000   -3.364137    1.239978
     18          1           0       -0.000000   -1.239465    2.479641
 ---------------------------------------------------------------------

 SCF Done:  E(ROHF) =  -383.499087612     A.U. after   11 cycles

 The electronic state is 1-AG.
 Alpha  occ. eigenvalues --  -11.24330 -11.24227 -11.23588 -11.23584 -11.23560
 Alpha  occ. eigenvalues --  -11.23551 -11.23448 -11.23444 -11.23368 -11.23366
 Alpha  occ. eigenvalues --   -1.17832  -1.11167  -1.05195  -1.00982  -0.98287
 Alpha  occ. eigenvalues --   -0.85558  -0.83781  -0.81285  -0.70778  -0.70143
 Alpha  occ. eigenvalues --   -0.67972  -0.62448  -0.61282  -0.58628  -0.58467
 Alpha  occ. eigenvalues --   -0.56580  -0.53558  -0.52550  -0.49030  -0.47767
 Alpha  occ. eigenvalues --   -0.45054  -0.38731  -0.32055  -0.29048
 Alpha virt. eigenvalues --    0.04576   0.04643   0.04741   0.06272   0.06286
 Alpha virt. eigenvalues --    0.07452   0.07577   0.08031   0.08643   0.08664
 Alpha virt. eigenvalues --    0.10360   0.10421   0.10568   0.10759   0.10970

 Mulliken charges and spin densities:
               1          2
     1  C   -0.228027   0.000000
     2  C   -0.173331   0.000000
     3  C   -0.173331   0.000000
     4  C   -0.228027   0.000000
     5  C   -0.228027   0.000000
     6  C   -0.173331   0.000000
     7  C   -0.173331   0.000000
     8  C   -0.228027   0.000000
     9  C    0.261803   0.000000
    10  C    0.261803   0.000000
    11  H    0.131053   0.000000
    12  H    0.139403   0.000000
    13  H    0.139403   0.000000
    14  H    0.131053   0.000000
    15  H    0.131053   0.000000
    16  H    0.139403   0.000000
    17  H    0.139403   0.000000
    18  H    0.131053   0.000000
 Sum of Mulliken charges =  -0.00000   0.00000

 Dipole moment (field-independent basis, Debye):
    X=              0.0000    Y=              0.0000    Z=              0.0000  Tot=              0.0000
 Quadrupole moment (field-independent basis, Debye-Ang):
   XX=            -65.5843   YY=            -51.8407   ZZ=            -52.0127
   XY=              0.0000   XZ=             -0.0000   YZ=              0.0000

 Normal termination of Gaussian 16 at Wed Sep 27 15:57:15 2023.
