 Gaussian 16, Revision B.01,
 Gaussian 16:  ES64L-G16RevB.01 20-Dec-2017

 --------------------
 # b3lyp/gen opt freq
 --------------------

 ----------------------
 n-butyl, B3LYP/pcseg-2
 ----------------------
 Symbolic Z-matrix:
 Charge =  0 Multiplicity = 2

 SCF Done:  E(UB3LYP) =  -157.841171754     A.U. after   13 cycles
 SCF Done:  E(UB3LYP) =  -157.850077326     A.U. after   12 cycles
 SCF Done:  E(UB3LYP) =  -157.852554190     A.U. after   12 cycles
 SCF Done:  E(UB3LYP) =  -157.852749806     A.U. after   11 cycles
 SCF Done:  E(UB3LYP) =  -157.852774885     A.U. after    8 cycles
 SCF Done:  E(UB3LYP) =  -157.852782438     A.U. after    9 cycles
 SCF Done:  E(UB3LYP) =  -157.852782792     A.U. after    7 cycles
 SCF Done:  E(UB3LYP) =  -157.852783215     A.U. after    7 cycles
 SCF Done:  E(UB3LYP) =  -157.852783498     A.U. after    7 cycles
 SCF Done:  E(UB3LYP) =  -157.852783614     A.U. after    7 cycles
 Optimization completed.
    -- Stationary point found.
 Normal termination of Gaussian 16 at Wed Jun 15 15:37:53 2022.

 ------------------------------------------------------------------
 #N Geom=AllCheck Guess=TCheck SCRF=Check GenChk UB3LYP/ChkBas Freq
 ------------------------------------------------------------------

 Structure from the checkpoint file:  "/wrk/irikura/Gau-12631.chk"
 ----------------------
 n-butyl, B3LYP/pcseg-2
 ----------------------
 Charge =  0 Multiplicity = 2

                         Standard orientation:
 ---------------------------------------------------------------------
 Center     Atomic      Atomic             Coordinates (Angstroms)
 Number     Number       Type             X           Y           Z
 ---------------------------------------------------------------------
      1          6           0        0.508354    0.521101   -0.062454
      2          6           0       -0.643195   -0.486502    0.030281
      3          6           0        1.885781   -0.132987    0.017915
      4          6           0       -1.994019    0.129380   -0.006701
      5          1           0        0.402514    1.255039    0.741573
      6          1           0        0.418389    1.078988   -0.997988
      7          1           0       -0.521757   -1.065365    0.961313
      8          1           0       -0.549625   -1.228538   -0.770484
      9          1           0        2.682750    0.608347   -0.050997
     10          1           0        2.013538   -0.670767    0.959616
     11          1           0        2.030210   -0.850091   -0.792753
     12          1           0       -2.864589   -0.450116   -0.278477
     13          1           0       -2.152953    1.136556    0.353956
 ---------------------------------------------------------------------

 SCF Done:  E(UB3LYP) =  -157.852783614     A.U. after    1 cycles

 The electronic state is 2-A.
 Alpha  occ. eigenvalues --  -10.17533 -10.17158 -10.16736 -10.15946  -0.80058
 Alpha  occ. eigenvalues --   -0.72616  -0.62762  -0.58078  -0.47100  -0.43964
 Alpha  occ. eigenvalues --   -0.43301  -0.40089  -0.37969  -0.35018  -0.33894
 Alpha  occ. eigenvalues --   -0.33306  -0.20560
 Alpha virt. eigenvalues --    0.01776   0.03535   0.04280   0.05105   0.07076
 Alpha virt. eigenvalues --    0.08572   0.09553   0.09994   0.11190   0.13339
 Alpha virt. eigenvalues --    0.14339   0.17602   0.18284   0.20350   0.21407

  Beta  occ. eigenvalues --  -10.17238 -10.16706 -10.16093 -10.15944  -0.79522
  Beta  occ. eigenvalues --   -0.71450  -0.61398  -0.57108  -0.46697  -0.43420
  Beta  occ. eigenvalues --   -0.42962  -0.39317  -0.37510  -0.34654  -0.33602
  Beta  occ. eigenvalues --   -0.33124
  Beta virt. eigenvalues --   -0.05914   0.01815   0.03778   0.04310   0.05201
  Beta virt. eigenvalues --    0.07224   0.08624   0.09640   0.10063   0.11309
  Beta virt. eigenvalues --    0.13401   0.14366   0.17807   0.18673   0.20668

 Mulliken charges and spin densities:
               1          2
     1  C   -0.019225   0.011614
     2  C    0.028942  -0.096785
     3  C   -0.077736   0.001356
     4  C   -0.182257   1.076425
     5  H    0.012850  -0.000641
     6  H    0.021856   0.002445
     7  H    0.021972   0.061896
     8  H    0.016634   0.019138
     9  H    0.032264  -0.000165
    10  H    0.017456   0.000150
    11  H    0.018981  -0.000050
    12  H    0.055066  -0.035983
    13  H    0.053197  -0.039400
 Sum of Mulliken charges =  -0.00000   1.00000

 Dipole moment (field-independent basis, Debye):
    X=              0.2722    Y=             -0.1178    Z=              0.0908  Tot=              0.3102
 Quadrupole moment (field-independent basis, Debye-Ang):
   XX=            -28.9466   YY=            -27.7963   ZZ=            -28.4286
   XY=              0.5289   XZ=             -0.0640   YZ=              0.5682

  Exact polarizability:  60.101  -1.343  48.468   0.447   0.014  44.447
 Approx polarizability:  68.835  -1.580  66.851   0.718   0.238  63.628

                      1                      2                      3
                      A                      A                      A
 Frequencies --     93.7333               130.8495               237.3905
 Red. masses --      1.1216                 1.8055                 1.0908
 Frc consts  --      0.0058                 0.0182                 0.0362
 IR Inten    --      0.0578                 0.1094                 0.0106

                      4                      5                      6
                      A                      A                      A
 Frequencies --    263.6855               429.2533               497.1216
 Red. masses --      2.2076                 2.4988                 1.3158
 Frc consts  --      0.0904                 0.2713                 0.1916
 IR Inten    --      0.3294                 3.3522                50.6362

                      7                      8                      9
                      A                      A                      A
 Frequencies --    730.6052               823.1722               864.9252
 Red. masses --      1.1253                 1.5038                 1.4851
 Frc consts  --      0.3539                 0.6004                 0.6546
 IR Inten    --      1.4288                 0.4334                 2.2514

                     10                     11                     12
                      A                      A                      A
 Frequencies --    967.5013              1029.7334              1074.0289
 Red. masses --      1.2092                 3.2005                 1.5507
 Frc consts  --      0.6669                 1.9995                 1.0539
 IR Inten    --      2.0803                 0.2704                 0.5431

                     13                     14                     15
                      A                      A                      A
 Frequencies --   1090.6294              1167.8838              1247.9280
 Red. masses --      2.0901                 2.0029                 1.3585
 Frc consts  --      1.4648                 1.6095                 1.2465
 IR Inten    --      0.1812                 0.9550                 0.1109

                     16                     17                     18
                      A                      A                      A
 Frequencies --   1314.9694              1326.9862              1388.7575
 Red. masses --      1.2156                 1.2038                 1.5389
 Frc consts  --      1.2384                 1.2489                 1.7487
 IR Inten    --      1.3028                 1.5107                 0.6253

                     19                     20                     21
                      A                      A                      A
 Frequencies --   1414.0579              1462.7496              1466.6263
 Red. masses --      1.2301                 1.0753                 1.1721
 Frc consts  --      1.4491                 1.3556                 1.4854
 IR Inten    --      2.4668                 2.8240                 0.1891

                     22                     23                     24
                      A                      A                      A
 Frequencies --   1492.5099              1498.5204              1507.7681
 Red. masses --      1.0523                 1.0400                 1.0803
 Frc consts  --      1.3811                 1.3760                 1.4470
 IR Inten    --      0.7762                 7.6136                 6.1306

                     25                     26                     27
                      A                      A                      A
 Frequencies --   2910.7658              3002.3027              3017.6937
 Red. masses --      1.0733                 1.0805                 1.0602
 Frc consts  --      5.3577                 5.7385                 5.6883
 IR Inten    --     28.5051                 9.6239                29.9950

                     28                     29                     30
                      A                      A                      A
 Frequencies --   3023.9548              3045.9966              3083.4218
 Red. masses --      1.0361                 1.1023                 1.1026
 Frc consts  --      5.5823                 6.0259                 6.1763
 IR Inten    --     39.2103                14.6669                55.9484

                     31                     32                     33
                      A                      A                      A
 Frequencies --   3090.0033              3139.4168              3238.8300
 Red. masses --      1.1007                 1.0510                 1.1181
 Frc consts  --      6.1919                 6.1029                 6.9106
 IR Inten    --     37.6572                17.4085                14.1385

 - Thermochemistry -
 -------------------
 Temperature   298.150 Kelvin.  Pressure   1.00000 Atm.
 Atom     1 has atomic number  6 and mass  12.00000

 Molecular mass:    57.07043 amu.
 Principal axes and moments of inertia in atomic units:
                           1         2         3
     Eigenvalues --    71.11550 473.81045 509.86438
           X            0.99999  -0.00369   0.00012
           Y            0.00369   0.99955   0.02976
           Z           -0.00023  -0.02975   0.99956
 This molecule is an asymmetric top.
 Rotational symmetry number  1.
 Rotational temperatures (Kelvin)      1.21793     0.18280     0.16988
 Rotational constants (GHZ):          25.37761     3.80899     3.53965
 Zero-point vibrational energy     305489.0 (Joules/Mol)
                                   73.01362 (Kcal/Mol)
 Warning -- explicit consideration of   6 degrees of freedom as
           vibrations may cause significant error
 Vibrational temperatures:    134.86   188.26   341.55   379.38   617.60
          (Kelvin)            715.25  1051.18  1184.36  1244.43  1392.02
                             1481.56  1545.29  1569.17  1680.32  1795.49
                             1891.95  1909.24  1998.11  2034.51  2104.57
                             2110.15  2147.39  2156.04  2169.34  4187.94
                             4319.64  4341.79  4350.80  4382.51  4436.36
                             4445.83  4516.92  4659.95

 Zero-point correction=                           0.116355 (Hartree/Particle)
 Thermal correction to Energy=                    0.122548
 Thermal correction to Enthalpy=                  0.123493
 Thermal correction to Gibbs Free Energy=         0.087167
 Sum of electronic and zero-point Energies=           -157.736429
 Sum of electronic and thermal Energies=              -157.730235
 Sum of electronic and thermal Enthalpies=            -157.729291
 Sum of electronic and thermal Free Energies=         -157.765617

                     E (Thermal)             CV                S
                      KCal/Mol        Cal/Mol-Kelvin    Cal/Mol-Kelvin
 Total                   76.900             20.595             76.454
 Electronic               0.000              0.000              1.377
 Translational            0.889              2.981             38.046
 Rotational               0.889              2.981             24.356
 Vibrational             75.123             14.633             12.675
 Vibration     1          0.603              1.954              3.581
 Vibration     2          0.612              1.922              2.934
 Vibration     3          0.656              1.783              1.822
 Vibration     4          0.670              1.739              1.637
 Vibration     5          0.791              1.407              0.861
 Vibration     6          0.853              1.256              0.665

 Optimization completed.
    -- Stationary point found.
 Normal termination of Gaussian 16 at Wed Jun 15 15:42:33 2022.
