 Gaussian 16, Revision B.01,

 ---------------------------------------
 # b3lyp/gen opt freq CPHF(Grid=OneStep)
 ---------------------------------------

 ----------------------
 n-butyl, B3LYP/pcseg-2
 ----------------------
 Symbolic Z-matrix:
 Charge =  0 Multiplicity = 2

 SCF Done:  E(UB3LYP) =  -157.852783614     A.U. after   13 cycles
 Optimization completed.
    -- Stationary point found.
 Normal termination of Gaussian 16 at Fri Sep 29 19:03:00 2023.

 ------------------------------------------------------------------
 #N Geom=AllCheck Guess=TCheck SCRF=Check GenChk UB3LYP/ChkBas Freq
 ------------------------------------------------------------------

 Structure from the checkpoint file:  "nBu.chk"
 ----------------------
 n-butyl, B3LYP/pcseg-2
 ----------------------
 Charge =  0 Multiplicity = 2

 SCF Done:  E(UB3LYP) =  -157.852783614     A.U. after    1 cycles

  Exact polarizability:  60.101  -1.343  48.468   0.447   0.014  44.447
 Approx polarizability:  68.835  -1.580  66.851   0.718   0.238  63.628

                      1                      2                      3
                      A                      A                      A
 Frequencies --     94.0488               130.8365               237.3931
 Red. masses --      1.1223                 1.8035                 1.0908
 Frc consts  --      0.0058                 0.0182                 0.0362
 IR Inten    --      0.0576                 0.1090                 0.0106

                      4                      5                      6
                      A                      A                      A
 Frequencies --    263.6818               429.2489               497.0994
 Red. masses --      2.2075                 2.4986                 1.3159
 Frc consts  --      0.0904                 0.2712                 0.1916
 IR Inten    --      0.3296                 3.3554                50.6328

                      7                      8                      9
                      A                      A                      A
 Frequencies --    730.6039               823.1732               864.9252
 Red. masses --      1.1253                 1.5038                 1.4851
 Frc consts  --      0.3539                 0.6004                 0.6546
 IR Inten    --      1.4287                 0.4334                 2.2513

                     10                     11                     12
                      A                      A                      A
 Frequencies --    967.5033              1029.7341              1074.0327
 Red. masses --      1.2092                 3.2004                 1.5507
 Frc consts  --      0.6669                 1.9994                 1.0539
 IR Inten    --      2.0798                 0.2704                 0.5432

                     13                     14                     15
                      A                      A                      A
 Frequencies --   1090.6305              1167.8836              1247.9275
 Red. masses --      2.0903                 2.0029                 1.3585
 Frc consts  --      1.4649                 1.6095                 1.2465
 IR Inten    --      0.1812                 0.9551                 0.1109

                     16                     17                     18
                      A                      A                      A
 Frequencies --   1314.9707              1326.9865              1388.7580
 Red. masses --      1.2156                 1.2038                 1.5389
 Frc consts  --      1.2384                 1.2489                 1.7487
 IR Inten    --      1.3033                 1.5111                 0.6253

                     19                     20                     21
                      A                      A                      A
 Frequencies --   1414.0587              1462.7493              1466.6285
 Red. masses --      1.2301                 1.0753                 1.1721
 Frc consts  --      1.4491                 1.3555                 1.4854
 IR Inten    --      2.4665                 2.8236                 0.1892

                     22                     23                     24
                      A                      A                      A
 Frequencies --   1492.5104              1498.5220              1507.7672
 Red. masses --      1.0523                 1.0400                 1.0803
 Frc consts  --      1.3811                 1.3760                 1.4470
 IR Inten    --      0.7761                 7.6134                 6.1305

                     25                     26                     27
                      A                      A                      A
 Frequencies --   2910.7654              3002.3038              3017.6963
 Red. masses --      1.0733                 1.0805                 1.0602
 Frc consts  --      5.3577                 5.7385                 5.6883
 IR Inten    --     28.5060                 9.6303                29.9832

                     28                     29                     30
                      A                      A                      A
 Frequencies --   3023.9533              3045.9960              3083.4191
 Red. masses --      1.0361                 1.1023                 1.1026
 Frc consts  --      5.5823                 6.0259                 6.1763
 IR Inten    --     39.2169                14.6674                55.9508

                     31                     32                     33
                      A                      A                      A
 Frequencies --   3090.0070              3139.4179              3238.8340
 Red. masses --      1.1007                 1.0510                 1.1181
 Frc consts  --      6.1919                 6.1029                 6.9106
 IR Inten    --     37.6547                17.4104                14.1357

 - Thermochemistry -
 -------------------
 Temperature   298.150 Kelvin.  Pressure   1.00000 Atm.
 Atom     1 has atomic number  6 and mass  12.00000

 Molecular mass:    57.07043 amu.
 Principal axes and moments of inertia in atomic units:
                           1         2         3
     Eigenvalues --    71.11548 473.81045 509.86436
           X            0.99999  -0.00369   0.00012
           Y            0.00369   0.99955   0.02976
           Z           -0.00023  -0.02976   0.99956
 This molecule is an asymmetric top.
 Rotational symmetry number  1.
 Rotational temperatures (Kelvin)      1.21793     0.18280     0.16988
 Rotational constants (GHZ):          25.37761     3.80899     3.53965
 Zero-point vibrational energy     305490.8 (Joules/Mol)
                                   73.01404 (Kcal/Mol)
 Warning -- explicit consideration of   6 degrees of freedom as
           vibrations may cause significant error
 Vibrational temperatures:    135.32   188.24   341.56   379.38   617.59
          (Kelvin)            715.22  1051.18  1184.36  1244.43  1392.02
                             1481.56  1545.29  1569.17  1680.32  1795.49
                             1891.95  1909.24  1998.11  2034.52  2104.57
                             2110.15  2147.39  2156.04  2169.34  4187.94
                             4319.65  4341.79  4350.79  4382.51  4436.35
                             4445.83  4516.92  4659.96

 Zero-point correction=                           0.116355 (Hartree/Particle)
 Thermal correction to Energy=                    0.122548
 Thermal correction to Enthalpy=                  0.123493
 Thermal correction to Gibbs Free Energy=         0.087170
 Sum of electronic and zero-point Energies=           -157.736428
 Sum of electronic and thermal Energies=              -157.730235
 Sum of electronic and thermal Enthalpies=            -157.729291
 Sum of electronic and thermal Free Energies=         -157.765614

                     E (Thermal)             CV                S
                      KCal/Mol        Cal/Mol-Kelvin    Cal/Mol-Kelvin
 Total                   76.900             20.595             76.448
 Electronic               0.000              0.000              1.377
 Translational            0.889              2.981             38.046
 Rotational               0.889              2.981             24.356
 Vibrational             75.123             14.633             12.669
 Vibration     1          0.603              1.953              3.574
 Vibration     2          0.612              1.922              2.934
 Vibration     3          0.656              1.783              1.822
 Vibration     4          0.670              1.739              1.637
 Vibration     5          0.791              1.407              0.861
 Vibration     6          0.853              1.256              0.665

 Optimization completed.
    -- Stationary point found.
 Normal termination of Gaussian 16 at Fri Sep 29 19:23:28 2023.
 Gaussian 16:  ES64L-G16RevB.01 20-Dec-2017

 ---------------------------------
 # rohf/gen geom=check guess=check
 ---------------------------------

 -------------------------
 n-butyl, ROHF/cc-pVTZ-F12
 -------------------------
 Structure from the checkpoint file:  "nBu.chk"
 Charge =  0 Multiplicity = 2

                         Standard orientation:
 ---------------------------------------------------------------------
 Center     Atomic      Atomic             Coordinates (Angstroms)
 Number     Number       Type             X           Y           Z
 ---------------------------------------------------------------------
      1          6           0        0.508354    0.521101   -0.062454
      2          6           0       -0.643195   -0.486502    0.030281
      3          6           0        1.885781   -0.132987    0.017915
      4          6           0       -1.994019    0.129380   -0.006701
      5          1           0        0.402514    1.255039    0.741573
      6          1           0        0.418389    1.078988   -0.997988
      7          1           0       -0.521757   -1.065365    0.961313
      8          1           0       -0.549625   -1.228538   -0.770484
      9          1           0        2.682750    0.608347   -0.050997
     10          1           0        2.013538   -0.670767    0.959616
     11          1           0        2.030210   -0.850091   -0.792753
     12          1           0       -2.864589   -0.450116   -0.278477
     13          1           0       -2.152953    1.136556    0.353956
 ---------------------------------------------------------------------

 SCF Done:  E(ROHF) =  -156.727748267     A.U. after   17 cycles

 The electronic state is 2-A.
 Alpha  occ. eigenvalues --  -11.22065 -11.21701 -11.21197 -11.20982  -1.06765
 Alpha  occ. eigenvalues --   -0.96686  -0.83912  -0.77910  -0.63096  -0.59154
 Alpha  occ. eigenvalues --   -0.58463  -0.54001  -0.52023  -0.48175  -0.47143
 Alpha  occ. eigenvalues --   -0.46461  -0.05967
 Alpha virt. eigenvalues --    0.04872   0.05363   0.05426   0.07031   0.07662
 Alpha virt. eigenvalues --    0.08466   0.09531   0.09798   0.10894   0.11436
 Alpha virt. eigenvalues --    0.12464   0.12616   0.16727   0.17701   0.18408

 Mulliken charges and spin densities:
               1          2
     1  C   -0.108411   0.003600
     2  C   -0.104092   0.007710
     3  C   -0.298664   0.000302
     4  C   -0.299015   0.920448
     5  H    0.070566   0.000057
     6  H    0.083096   0.000829
     7  H    0.072223   0.018916
     8  H    0.075486   0.004330
     9  H    0.086199   0.000073
    10  H    0.085875   0.000154
    11  H    0.086543   0.000042
    12  H    0.127856   0.020971
    13  H    0.122338   0.022567
 Sum of Mulliken charges =  -0.00000   1.00000

 Dipole moment (field-independent basis, Debye):
    X=              0.1738    Y=             -0.0782    Z=              0.0794  Tot=              0.2065
 Quadrupole moment (field-independent basis, Debye-Ang):
   XX=            -28.6667   YY=            -27.6751   ZZ=            -28.2506
   XY=              0.4768   XZ=             -0.0599   YZ=              0.5691

 Normal termination of Gaussian 16 at Fri Sep 29 19:28:41 2023.
