 Gaussian 16, Revision B.01,
 Gaussian 16:  ES64L-G16RevB.01 20-Dec-2017

 --------------------
 # b3lyp/gen opt freq
 --------------------

 -----------------------
 cyanogen, B3LYP/pcseg-2
 -----------------------
 Symbolic Z-matrix:
 Charge =  0 Multiplicity = 1

 SCF Done:  E(RB3LYP) =  -185.727451712     A.U. after   10 cycles
 SCF Done:  E(RB3LYP) =  -185.727608756     A.U. after    7 cycles
 SCF Done:  E(RB3LYP) =  -185.727610405     A.U. after    6 cycles
 Optimization completed.
    -- Stationary point found.
 Normal termination of Gaussian 16 at Wed Jun 15 16:22:45 2022.

 ------------------------------------------------------------------
 #N Geom=AllCheck Guess=TCheck SCRF=Check GenChk RB3LYP/ChkBas Freq
 ------------------------------------------------------------------

 Structure from the checkpoint file:  "/wrk/irikura/Gau-25699.chk"
 -----------------------
 cyanogen, B3LYP/pcseg-2
 -----------------------
 Charge =  0 Multiplicity = 1

                         Standard orientation:
 ---------------------------------------------------------------------
 Center     Atomic      Atomic             Coordinates (Angstroms)
 Number     Number       Type             X           Y           Z
 ---------------------------------------------------------------------
      1          6           0        0.000000    0.000000    0.687886
      2          6           0        0.000000    0.000000   -0.687886
      3          7           0        0.000000    0.000000    1.839812
      4          7           0        0.000000    0.000000   -1.839812
 ---------------------------------------------------------------------

 SCF Done:  E(RB3LYP) =  -185.727610405     A.U. after    1 cycles

 The electronic state is 1-SGG.
 Alpha  occ. eigenvalues --  -14.39270 -14.39270 -10.28821 -10.28758  -0.99019
 Alpha  occ. eigenvalues --   -0.97114  -0.75999  -0.46352  -0.46352  -0.44087
 Alpha  occ. eigenvalues --   -0.42957  -0.38256  -0.38256
 Alpha virt. eigenvalues --   -0.10313  -0.10313   0.04080   0.06068   0.10936
 Alpha virt. eigenvalues --    0.10936   0.13480   0.13480   0.17099   0.19017
 Alpha virt. eigenvalues --    0.21792   0.21792   0.27814   0.35193   0.36997

 Mulliken charges:
               1
     1  C    0.093245
     2  C    0.093245
     3  N   -0.093245
     4  N   -0.093245
 Sum of Mulliken charges =  -0.00000

 Dipole moment (field-independent basis, Debye):
    X=             -0.0000    Y=              0.0000    Z=             -0.0000  Tot=              0.0000
 Quadrupole moment (field-independent basis, Debye-Ang):
   XX=            -21.0244   YY=            -21.0244   ZZ=            -30.5099
   XY=              0.0000   XZ=              0.0000   YZ=             -0.0000

  Exact polarizability:  17.729  -0.000  17.729  -0.000  -0.000  55.569
 Approx polarizability:  24.200  -0.000  24.200  -0.000  -0.000 116.481

                      1                      2                      3
                     PIU                    PIU                    PIG
 Frequencies --    253.6453               253.6453               554.5959
 Red. masses --     12.8481                12.8481                12.1865
 Frc consts  --      0.4870                 0.4870                 2.2084
 IR Inten    --     21.6990                21.6990                 0.0000

                      4                      5                      6
                     PIG                    SGG                    SGU
 Frequencies --    554.5959               884.2793              2266.3322
 Red. masses --     12.1865                13.3547                12.8481
 Frc consts  --      2.2084                 6.1527                38.8810
 IR Inten    --      0.0000                 0.0000                 0.0130

                      7
                     SGG
 Frequencies --   2428.5912
 Red. masses --     12.5209
 Frc consts  --     43.5106
 IR Inten    --      0.0000

 - Thermochemistry -
 -------------------
 Temperature   298.150 Kelvin.  Pressure   1.00000 Atm.
 Atom     1 has atomic number  6 and mass  12.00000

 Molecular mass:    52.00615 amu.
 Principal axes and moments of inertia in atomic units:
                           1         2         3
     Eigenvalues --     0.00000 379.08522 379.08522
           X           -0.00000   0.70711   0.70711
           Y           -0.00000   0.70711  -0.70711
           Z            1.00000   0.00000   0.00000
 This molecule is a prolate symmetric top.
 Rotational symmetry number  2.
 Rotational temperature (Kelvin)      0.22848
 Rotational constant (GHZ):           4.760780
 Zero-point vibrational energy      43039.8 (Joules/Mol)
                                   10.28675 (Kcal/Mol)
 Warning -- explicit consideration of   4 degrees of freedom as
           vibrations may cause significant error
 Vibrational temperatures:    364.94   364.94   797.94   797.94  1272.28
          (Kelvin)           3260.75  3494.20

 Zero-point correction=                           0.016393 (Hartree/Particle)
 Thermal correction to Energy=                    0.020147
 Thermal correction to Enthalpy=                  0.021091
 Thermal correction to Gibbs Free Energy=        -0.006116
 Sum of electronic and zero-point Energies=           -185.711217
 Sum of electronic and thermal Energies=              -185.707463
 Sum of electronic and thermal Enthalpies=            -185.706519
 Sum of electronic and thermal Free Energies=         -185.733727

                     E (Thermal)             CV                S
                      KCal/Mol        Cal/Mol-Kelvin    Cal/Mol-Kelvin
 Total                   12.643             11.269             57.264
 Electronic               0.000              0.000              0.000
 Translational            0.889              2.981             37.769
 Rotational               0.592              1.987             14.866
 Vibrational             11.161              6.301              4.629
 Vibration     1          0.665              1.757              1.705
 Vibration     2          0.665              1.757              1.705
 Vibration     3          0.910              1.130              0.535
 Vibration     4          0.910              1.130              0.535

 Optimization completed.
    -- Stationary point found.
 Normal termination of Gaussian 16 at Wed Jun 15 16:22:54 2022.
