 Gaussian 16, Revision B.01,

 ---------------------------------------
 # b3lyp/gen opt freq CPHF(Grid=OneStep)
 ---------------------------------------

 ----------------------------
 cyanoimidogen, B3LYP/pcseg-2
 ----------------------------
 Symbolic Z-matrix:
 Charge =  0 Multiplicity = 3

 SCF Done:  E(UB3LYP) =  -147.548147121     A.U. after   13 cycles
 Optimization completed.
    -- Stationary point found.
 Normal termination of Gaussian 16 at Sun Oct  1 00:03:37 2023.

 ------------------------------------------------------------------
 #N Geom=AllCheck Guess=TCheck SCRF=Check GenChk UB3LYP/ChkBas Freq
 ------------------------------------------------------------------

 Structure from the checkpoint file:  "ncn.chk"
 ----------------------------
 cyanoimidogen, B3LYP/pcseg-2
 ----------------------------
 Charge =  0 Multiplicity = 3

 SCF Done:  E(UB3LYP) =  -147.548147121     A.U. after    1 cycles

  Exact polarizability:  14.351   0.000  14.351  -0.000   0.000  38.035
 Approx polarizability:  18.447  -0.000  18.447  -0.000  -0.000  77.063

                      1                      2                      3
                     PIU                    PIU                    SGG
 Frequencies --    449.5632               449.5632              1274.8509
 Red. masses --     12.5380                12.5380                14.0031
 Frc consts  --      1.4930                 1.4930                13.4089
 IR Inten    --     20.2784                20.2784                 0.0000

                      4
                     SGU
 Frequencies --   1553.2194
 Red. masses --     12.5380
 Frc consts  --     17.8214
 IR Inten    --    199.3471

 - Thermochemistry -
 -------------------
 Temperature   298.150 Kelvin.  Pressure   1.00000 Atm.
 Atom     1 has atomic number  6 and mass  12.00000

 Molecular mass:    40.00615 amu.
 Principal axes and moments of inertia in atomic units:
                           1         2         3
     Eigenvalues --     0.00000 149.82275 149.82275
           X           -0.00000   1.00000  -0.00000
           Y            0.00000   0.00000   1.00000
           Z            1.00000   0.00000  -0.00000
 This molecule is a prolate symmetric top.
 Rotational symmetry number  2.
 Rotational temperature (Kelvin)      0.57811
 Rotational constant (GHZ):          12.045842
 Zero-point vibrational energy      22293.6 (Joules/Mol)
                                    5.32830 (Kcal/Mol)
 Warning -- explicit consideration of   2 degrees of freedom as
           vibrations may cause significant error
 Vibrational temperatures:    646.82   646.82  1834.23  2234.74
          (Kelvin)

 Zero-point correction=                           0.008491 (Hartree/Particle)
 Thermal correction to Energy=                    0.011396
 Thermal correction to Enthalpy=                  0.012341
 Thermal correction to Gibbs Free Energy=        -0.013234
 Sum of electronic and zero-point Energies=           -147.539656
 Sum of electronic and thermal Energies=              -147.536751
 Sum of electronic and thermal Enthalpies=            -147.535807
 Sum of electronic and thermal Free Energies=         -147.561381

                     E (Thermal)             CV                S
                      KCal/Mol        Cal/Mol-Kelvin    Cal/Mol-Kelvin
 Total                    7.151              7.915             53.825
 Electronic               0.000              0.000              2.183
 Translational            0.889              2.981             36.987
 Rotational               0.592              1.987             13.021
 Vibrational              5.670              2.947              1.634
 Vibration     1          0.808              1.362              0.797
 Vibration     2          0.808              1.362              0.797

 Optimization completed.
    -- Stationary point found.
 Normal termination of Gaussian 16 at Sun Oct  1 00:03:58 2023.
 Gaussian 16:  ES64L-G16RevB.01 20-Dec-2017

 ---------------------------------
 # rohf/gen geom=check guess=check
 ---------------------------------

 -------------------------------
 cyanoimidogen, ROHF/cc-pVTZ-F12
 -------------------------------
 Structure from the checkpoint file:  "ncn.chk"
 Charge =  0 Multiplicity = 3

                         Standard orientation:
 ---------------------------------------------------------------------
 Center     Atomic      Atomic             Coordinates (Angstroms)
 Number     Number       Type             X           Y           Z
 ---------------------------------------------------------------------
      1          6           0        0.000000    0.000000    0.000000
      2          7           0        0.000000    0.000000    1.223949
      3          7           0        0.000000    0.000000   -1.223949
 ---------------------------------------------------------------------

 SCF Done:  E(ROHF) =  -146.704097056     A.U. after   10 cycles

 The electronic state is 3-SGG.
 Alpha  occ. eigenvalues --  -15.67854 -15.67853 -11.34843  -1.29295  -1.18509
 Alpha  occ. eigenvalues --   -0.66868  -0.61878  -0.55188  -0.55188  -0.16806
 Alpha  occ. eigenvalues --   -0.16806
 Alpha virt. eigenvalues --    0.04692   0.06387   0.06714   0.06714   0.13106
 Alpha virt. eigenvalues --    0.13976   0.13976   0.17290   0.17622   0.17622
 Alpha virt. eigenvalues --    0.21936   0.22710   0.23481   0.23481   0.39987

 Mulliken charges and spin densities:
               1          2
     1  C    0.315491   0.118948
     2  N   -0.157746   0.940526
     3  N   -0.157746   0.940526
 Sum of Mulliken charges =  -0.00000   2.00000

 Dipole moment (field-independent basis, Debye):
    X=             -0.0000    Y=              0.0000    Z=             -0.0000  Tot=              0.0000
 Quadrupole moment (field-independent basis, Debye-Ang):
   XX=            -15.9717   YY=            -15.9717   ZZ=            -20.4723
   XY=             -0.0000   XZ=              0.0000   YZ=             -0.0000

 Normal termination of Gaussian 16 at Sun Oct  1 00:04:03 2023.
