 Gaussian 16, Revision B.01,
 Gaussian 16:  ES64L-G16RevB.01 20-Dec-2017

 --------------------
 # b3lyp/gen opt freq
 --------------------

 ----------------------------
 cyanoimidogen, B3LYP/pcseg-2
 ----------------------------
 Symbolic Z-matrix:
 Charge =  0 Multiplicity = 3

 SCF Done:  E(UB3LYP) =  -147.548061731     A.U. after   12 cycles
 SCF Done:  E(UB3LYP) =  -147.548146644     A.U. after    8 cycles
 SCF Done:  E(UB3LYP) =  -147.548147121     A.U. after    7 cycles
 Optimization completed.
    -- Stationary point found.
 Normal termination of Gaussian 16 at Wed Jun 15 15:48:33 2022.

 ------------------------------------------------------------------
 #N Geom=AllCheck Guess=TCheck SCRF=Check GenChk UB3LYP/ChkBas Freq
 ------------------------------------------------------------------

 Structure from the checkpoint file:  "/wrk/irikura/Gau-17076.chk"
 ----------------------------
 cyanoimidogen, B3LYP/pcseg-2
 ----------------------------
 Charge =  0 Multiplicity = 3

                         Standard orientation:
 ---------------------------------------------------------------------
 Center     Atomic      Atomic             Coordinates (Angstroms)
 Number     Number       Type             X           Y           Z
 ---------------------------------------------------------------------
      1          6           0        0.000000    0.000000    0.000000
      2          7           0        0.000000    0.000000    1.223949
      3          7           0        0.000000    0.000000   -1.223949
 ---------------------------------------------------------------------

 SCF Done:  E(UB3LYP) =  -147.548147121     A.U. after    1 cycles

 The electronic state is 3-SGG.
 Alpha  occ. eigenvalues --  -14.42720 -14.42719 -10.28247  -1.01778  -0.95435
 Alpha  occ. eigenvalues --   -0.49055  -0.48135  -0.48135  -0.44919  -0.35254
 Alpha  occ. eigenvalues --   -0.35254
 Alpha virt. eigenvalues --    0.02842   0.02842   0.03370   0.12214   0.14780
 Alpha virt. eigenvalues --    0.14780   0.24335   0.29277   0.29277   0.30120
 Alpha virt. eigenvalues --    0.30431   0.40054   0.40054   0.55233   0.59549

  Beta  occ. eigenvalues --  -14.40189 -14.40188 -10.28973  -0.97801  -0.89269
  Beta  occ. eigenvalues --   -0.45337  -0.42816  -0.42816  -0.41580
  Beta virt. eigenvalues --   -0.19278  -0.19278   0.03837   0.06879   0.06879
  Beta virt. eigenvalues --    0.12872   0.14844   0.14844   0.24659   0.30700
  Beta virt. eigenvalues --    0.31300   0.31874   0.31874   0.42272   0.42272

 Mulliken charges and spin densities:
               1          2
     1  C    0.286436  -0.393363
     2  N   -0.143218   1.196682
     3  N   -0.143218   1.196682
 Sum of Mulliken charges =  -0.00000   2.00000

 Dipole moment (field-independent basis, Debye):
    X=             -0.0000    Y=              0.0000    Z=              0.0000  Tot=              0.0000
 Quadrupole moment (field-independent basis, Debye-Ang):
   XX=            -15.7207   YY=            -15.7207   ZZ=            -20.8853
   XY=              0.0000   XZ=              0.0000   YZ=             -0.0000

  Exact polarizability:  14.351   0.000  14.351   0.000   0.000  38.035
 Approx polarizability:  18.447  -0.000  18.447  -0.000  -0.000  77.063

                      1                      2                      3
                     PIU                    PIU                    SGG
 Frequencies --    449.5767               449.5767              1274.8505
 Red. masses --     12.5380                12.5380                14.0031
 Frc consts  --      1.4931                 1.4931                13.4089
 IR Inten    --     20.2764                20.2764                 0.0000

                      4
                     SGU
 Frequencies --   1553.2079
 Red. masses --     12.5380
 Frc consts  --     17.8212
 IR Inten    --    199.3576

 - Thermochemistry -
 -------------------
 Temperature   298.150 Kelvin.  Pressure   1.00000 Atm.
 Atom     1 has atomic number  6 and mass  12.00000

 Molecular mass:    40.00615 amu.
 Principal axes and moments of inertia in atomic units:
                           1         2         3
     Eigenvalues --     0.00000 149.82270 149.82270
           X           -0.00000   1.00000  -0.00000
           Y            0.00000   0.00000   1.00000
           Z            1.00000   0.00000  -0.00000
 This molecule is a prolate symmetric top.
 Rotational symmetry number  2.
 Rotational temperature (Kelvin)      0.57811
 Rotational constant (GHZ):          12.045846
 Zero-point vibrational energy      22293.7 (Joules/Mol)
                                    5.32832 (Kcal/Mol)
 Warning -- explicit consideration of   2 degrees of freedom as
           vibrations may cause significant error
 Vibrational temperatures:    646.84   646.84  1834.23  2234.72
          (Kelvin)

 Zero-point correction=                           0.008491 (Hartree/Particle)
 Thermal correction to Energy=                    0.011396
 Thermal correction to Enthalpy=                  0.012341
 Thermal correction to Gibbs Free Energy=        -0.013234
 Sum of electronic and zero-point Energies=           -147.539656
 Sum of electronic and thermal Energies=              -147.536751
 Sum of electronic and thermal Enthalpies=            -147.535807
 Sum of electronic and thermal Free Energies=         -147.561381

                     E (Thermal)             CV                S
                      KCal/Mol        Cal/Mol-Kelvin    Cal/Mol-Kelvin
 Total                    7.151              7.915             53.825
 Electronic               0.000              0.000              2.183
 Translational            0.889              2.981             36.987
 Rotational               0.592              1.987             13.021
 Vibrational              5.670              2.947              1.634
 Vibration     1          0.808              1.362              0.797
 Vibration     2          0.808              1.362              0.797

 Optimization completed.
    -- Stationary point found.
 Normal termination of Gaussian 16 at Wed Jun 15 15:48:45 2022.
