 Gaussian 16, Revision B.01,

 ---------------------------------------
 # b3lyp/gen opt freq CPHF(Grid=OneStep)
 ---------------------------------------

 ---------------------------------
 isocyanato radical, B3LYP/pcseg-2
 ---------------------------------
 Symbolic Z-matrix:
 Charge =  0 Multiplicity = 2

 SCF Done:  E(UB3LYP) =  -168.072841976     A.U. after   15 cycles
 Optimization completed.
    -- Stationary point found.
 Normal termination of Gaussian 16 at Fri Sep 29 02:54:30 2023.

 ------------------------------------------------------------------
 #N Geom=AllCheck Guess=TCheck SCRF=Check GenChk UB3LYP/ChkBas Freq
 ------------------------------------------------------------------

 Structure from the checkpoint file:  "nco.chk"
 ---------------------------------
 isocyanato radical, B3LYP/pcseg-2
 ---------------------------------
 Charge =  0 Multiplicity = 2

 SCF Done:  E(UB3LYP) =  -168.072841976     A.U. after    1 cycles

  Exact polarizability:  12.178   0.000  12.360   0.000   0.000  32.129
 Approx polarizability:  15.480  -0.000  16.007  -0.000  -0.000  61.282

                      1                      2                      3
                     PI                     PI                     SG
 Frequencies --    510.2278               593.6410              1297.4798
 Red. masses --     12.7089                12.7089                14.8196
 Frc consts  --      1.9493                 2.6388                14.6990
 IR Inten    --     40.3269                15.2535                 9.1220

                      4
                     SG
 Frequencies --   1982.8547
 Red. masses --     12.7623
 Frc consts  --     29.5639
 IR Inten    --     75.6901

 - Thermochemistry -
 -------------------
 Temperature   298.150 Kelvin.  Pressure   1.00000 Atm.
 Atom     1 has atomic number  7 and mass  14.00307

 Molecular mass:    41.99799 amu.
 Principal axes and moments of inertia in atomic units:
                           1         2         3
     Eigenvalues --     0.00000 153.21650 153.21650
           X            0.00000  -0.00000   1.00000
           Y            0.00000   1.00000   0.00000
           Z            1.00000   0.00000   0.00000
 This molecule is a prolate symmetric top.
 Rotational symmetry number  1.
 Rotational temperature (Kelvin)      0.56530
 Rotational constant (GHZ):          11.779027
 Zero-point vibrational energy      26223.4 (Joules/Mol)
                                    6.26753 (Kcal/Mol)
 Warning -- explicit consideration of   2 degrees of freedom as
           vibrations may cause significant error
 Vibrational temperatures:    734.10   854.12  1866.78  2852.89
          (Kelvin)

 Zero-point correction=                           0.009988 (Hartree/Particle)
 Thermal correction to Energy=                    0.012740
 Thermal correction to Enthalpy=                  0.013685
 Thermal correction to Gibbs Free Energy=        -0.012008
 Sum of electronic and zero-point Energies=           -168.062854
 Sum of electronic and thermal Energies=              -168.060101
 Sum of electronic and thermal Enthalpies=            -168.059157
 Sum of electronic and thermal Free Energies=         -168.084850

                     E (Thermal)             CV                S
                      KCal/Mol        Cal/Mol-Kelvin    Cal/Mol-Kelvin
 Total                    7.995              7.403             54.075
 Electronic               0.000              0.000              1.377
 Translational            0.889              2.981             37.132
 Rotational               0.592              1.987             14.443
 Vibrational              6.514              2.435              1.123
 Vibration     1          0.865              1.227              0.633
 Vibration     2          0.951              1.045              0.461

 Optimization completed.
    -- Stationary point found.
 Normal termination of Gaussian 16 at Fri Sep 29 02:54:54 2023.
 Gaussian 16:  ES64L-G16RevB.01 20-Dec-2017

 ---------------------------------
 # rohf/gen geom=check guess=check
 ---------------------------------

 ------------------------------------
 isocyanato radical, ROHF/cc-pVTZ-F12
 ------------------------------------
 Structure from the checkpoint file:  "nco.chk"
 Charge =  0 Multiplicity = 2

                         Standard orientation:
 ---------------------------------------------------------------------
 Center     Atomic      Atomic             Coordinates (Angstroms)
 Number     Number       Type             X           Y           Z
 ---------------------------------------------------------------------
      1          7           0        0.000000    0.000000   -1.261832
      2          6           0        0.000000    0.000000   -0.040615
      3          8           0        0.000000    0.000000    1.134564
 ---------------------------------------------------------------------

 SCF Done:  E(ROHF) =  -167.191603936     A.U. after   15 cycles

 Unable to determine electronic state:  an orbital has unidentified symmetry.
 Alpha  occ. eigenvalues --  -20.66495 -15.64228 -11.43154  -1.49992  -1.24678
 Alpha  occ. eigenvalues --   -0.77893  -0.68540  -0.63867  -0.62776  -0.47439
 Alpha  occ. eigenvalues --   -0.18210
 Alpha virt. eigenvalues --    0.04678   0.06410   0.06607   0.06678   0.13511
 Alpha virt. eigenvalues --    0.14440   0.14569   0.19327   0.19360   0.19444
 Alpha virt. eigenvalues --    0.22069   0.22203   0.22388   0.24092   0.40283

 Mulliken charges and spin densities:
               1          2
     1  N   -0.241950   0.748852
     2  C    0.618198   0.145816
     3  O   -0.376248   0.105332
 Sum of Mulliken charges =  -0.00000   1.00000

 Dipole moment (field-independent basis, Debye):
    X=              0.0000    Y=             -0.0000    Z=              0.2593  Tot=              0.2593
 Quadrupole moment (field-independent basis, Debye-Ang):
   XX=            -16.0525   YY=            -14.6719   ZZ=            -20.9805
   XY=              0.0000   XZ=              0.0000   YZ=              0.0000

 Normal termination of Gaussian 16 at Fri Sep 29 02:55:00 2023.
