 Gaussian 16, Revision B.01,
 Gaussian 16:  ES64L-G16RevB.01 20-Dec-2017

 --------------------
 # b3lyp/gen opt freq
 --------------------

 ---------------------------------
 isocyanato radical, B3LYP/pcseg-2
 ---------------------------------
 Symbolic Z-matrix:
 Charge =  0 Multiplicity = 2

 SCF Done:  E(UB3LYP) =  -168.072780087     A.U. after   15 cycles
 SCF Done:  E(UB3LYP) =  -168.072841461     A.U. after   10 cycles
 SCF Done:  E(UB3LYP) =  -168.072841976     A.U. after    8 cycles
 Optimization completed.
    -- Stationary point found.
 Normal termination of Gaussian 16 at Wed Jun 15 15:48:55 2022.

 ------------------------------------------------------------------
 #N Geom=AllCheck Guess=TCheck SCRF=Check GenChk UB3LYP/ChkBas Freq
 ------------------------------------------------------------------

 Structure from the checkpoint file:  "/wrk/irikura/Gau-17277.chk"
 ---------------------------------
 isocyanato radical, B3LYP/pcseg-2
 ---------------------------------
 Charge =  0 Multiplicity = 2

                         Standard orientation:
 ---------------------------------------------------------------------
 Center     Atomic      Atomic             Coordinates (Angstroms)
 Number     Number       Type             X           Y           Z
 ---------------------------------------------------------------------
      1          7           0        0.000000    0.000000   -1.261832
      2          6           0        0.000000    0.000000   -0.040615
      3          8           0        0.000000    0.000000    1.134564
 ---------------------------------------------------------------------

 SCF Done:  E(UB3LYP) =  -168.072841976     A.U. after    1 cycles

 Unable to determine electronic state:  partially filled degenerate orbitals.
 Alpha  occ. eigenvalues --  -19.24678 -14.39928 -10.33598  -1.17104  -0.97502
 Alpha  occ. eigenvalues --   -0.57723  -0.53061  -0.50827  -0.44827  -0.37950
 Alpha  occ. eigenvalues --   -0.34213
 Alpha virt. eigenvalues --    0.00742   0.01910   0.02797   0.12638   0.13993
 Alpha virt. eigenvalues --    0.14511   0.25916   0.28558   0.31240   0.32465
 Alpha virt. eigenvalues --    0.33895   0.45056   0.45943   0.58139   0.70858

  Beta  occ. eigenvalues --  -19.23680 -14.38482 -10.33763  -1.15369  -0.93735
  Beta  occ. eigenvalues --   -0.56499  -0.50336  -0.48217  -0.42704  -0.32759
  Beta virt. eigenvalues --   -0.23176   0.02248   0.03213   0.05309   0.12930
  Beta virt. eigenvalues --    0.14185   0.14455   0.26164   0.29215   0.32838
  Beta virt. eigenvalues --    0.33645   0.34091   0.46155   0.46588   0.59054

 Mulliken charges and spin densities:
               1          2
     1  N   -0.221691   0.706461
     2  C    0.453501  -0.059148
     3  O   -0.231810   0.352688
 Sum of Mulliken charges =   0.00000   1.00000

 Dipole moment (field-independent basis, Debye):
    X=              0.0000    Y=              0.0000    Z=              0.7269  Tot=              0.7269
 Quadrupole moment (field-independent basis, Debye-Ang):
   XX=            -16.0460   YY=            -14.7005   ZZ=            -20.4874
   XY=              0.0000   XZ=              0.0000   YZ=              0.0000

  Exact polarizability:  12.178   0.000  12.360   0.000   0.000  32.129
 Approx polarizability:  15.480  -0.000  16.007  -0.000  -0.000  61.282

                      1                      2                      3
                     PI                     PI                     SG
 Frequencies --    510.3096               593.6420              1297.4771
 Red. masses --     12.7089                12.7089                14.8196
 Frc consts  --      1.9500                 2.6388                14.6989
 IR Inten    --     40.3121                15.2534                 9.1219

                      4
                     SG
 Frequencies --   1982.8536
 Red. masses --     12.7623
 Frc consts  --     29.5638
 IR Inten    --     75.6895

 - Thermochemistry -
 -------------------
 Temperature   298.150 Kelvin.  Pressure   1.00000 Atm.
 Atom     1 has atomic number  7 and mass  14.00307

 Molecular mass:    41.99799 amu.
 Principal axes and moments of inertia in atomic units:
                           1         2         3
     Eigenvalues --     0.00000 153.21656 153.21656
           X            0.00000  -0.00000   1.00000
           Y            0.00000   1.00000   0.00000
           Z            1.00000   0.00000   0.00000
 This molecule is a prolate symmetric top.
 Rotational symmetry number  1.
 Rotational temperature (Kelvin)      0.56530
 Rotational constant (GHZ):          11.779022
 Zero-point vibrational energy      26223.8 (Joules/Mol)
                                    6.26765 (Kcal/Mol)
 Warning -- explicit consideration of   2 degrees of freedom as
           vibrations may cause significant error
 Vibrational temperatures:    734.22   854.12  1866.78  2852.88
          (Kelvin)

 Zero-point correction=                           0.009988 (Hartree/Particle)
 Thermal correction to Energy=                    0.012741
 Thermal correction to Enthalpy=                  0.013685
 Thermal correction to Gibbs Free Energy=        -0.012008
 Sum of electronic and zero-point Energies=           -168.062854
 Sum of electronic and thermal Energies=              -168.060101
 Sum of electronic and thermal Enthalpies=            -168.059157
 Sum of electronic and thermal Free Energies=         -168.084850

                     E (Thermal)             CV                S
                      KCal/Mol        Cal/Mol-Kelvin    Cal/Mol-Kelvin
 Total                    7.995              7.402             54.075
 Electronic               0.000              0.000              1.377
 Translational            0.889              2.981             37.132
 Rotational               0.592              1.987             14.443
 Vibrational              6.514              2.434              1.123
 Vibration     1          0.865              1.227              0.633
 Vibration     2          0.951              1.045              0.461

 Optimization completed.
    -- Stationary point found.
 Normal termination of Gaussian 16 at Wed Jun 15 15:49:10 2022.
