 Gaussian 16, Revision B.01,

 ---------------------------------------
 # b3lyp/gen opt freq CPHF(Grid=OneStep)
 ---------------------------------------

 ------------------------
 neohexane, B3LYP/pcseg-2
 ------------------------
 Symbolic Z-matrix:
 Charge =  0 Multiplicity = 1

 SCF Done:  E(RB3LYP) =  -237.180531737     A.U. after   11 cycles
 Optimization completed.
    -- Stationary point found.
 Normal termination of Gaussian 16 at Sat Sep 30 12:56:07 2023.

 ------------------------------------------------------------------
 #N Geom=AllCheck Guess=TCheck SCRF=Check GenChk RB3LYP/ChkBas Freq
 ------------------------------------------------------------------

 Structure from the checkpoint file:  "neohexane.chk"
 ------------------------
 neohexane, B3LYP/pcseg-2
 ------------------------
 Charge =  0 Multiplicity = 1

 SCF Done:  E(RB3LYP) =  -237.180531737     A.U. after    1 cycles

  Exact polarizability:  78.691  -3.356  75.899   0.000   0.000  73.380
 Approx polarizability: 103.778  -0.090 103.197  -0.000  -0.000 103.098

                      1                      2                      3
                     A"                     A"                     A"
 Frequencies --     90.0493               207.2468               245.7999
 Red. masses --      1.6877                 1.0303                 1.1013
 Frc consts  --      0.0081                 0.0261                 0.0392
 IR Inten    --      0.0027                 0.0059                 0.0013

                      4                      5                      6
                     A'                     A'                     A"
 Frequencies --    254.3837               266.8786               279.8960
 Red. masses --      2.3185                 1.0738                 1.1004
 Frc consts  --      0.0884                 0.0451                 0.0508
 IR Inten    --      0.0215                 0.0334                 0.0000

                      7                      8                      9
                     A"                     A'                     A'
 Frequencies --    333.1530               354.4271               406.6901
 Red. masses --      2.0753                 2.2643                 2.2266
 Frc consts  --      0.1357                 0.1676                 0.2170
 IR Inten    --      0.0032                 0.0099                 0.0717

                     10                     11                     12
                     A"                     A'                     A'
 Frequencies --    417.6526               484.6774               707.4258
 Red. masses --      1.9973                 2.4039                 3.0906
 Frc consts  --      0.2053                 0.3327                 0.9113
 IR Inten    --      0.0543                 0.2313                 0.2182

                     13                     14                     15
                     A"                     A'                     A'
 Frequencies --    786.1980               868.5427               931.4699
 Red. masses --      1.1886                 2.0565                 1.7779
 Frc consts  --      0.4329                 0.9140                 0.9089
 IR Inten    --      2.0959                 0.1457                 0.6145

                     16                     17                     18
                     A"                     A"                     A"
 Frequencies --    931.6208               961.2589              1000.4714
 Red. masses --      1.8288                 1.2028                 1.2725
 Frc consts  --      0.9352                 0.6548                 0.7504
 IR Inten    --      0.0154                 0.0144                 0.5617

                     19                     20                     21
                     A'                     A'                     A'
 Frequencies --   1012.6271              1023.9245              1094.9330
 Red. masses --      1.3026                 2.3625                 1.6667
 Frc consts  --      0.7870                 1.4594                 1.1773
 IR Inten    --      2.1859                 2.2111                 1.7213

                     22                     23                     24
                     A"                     A'                     A"
 Frequencies --   1104.2540              1235.3682              1245.7171
 Red. masses --      1.4176                 2.4582                 2.0721
 Frc consts  --      1.0185                 2.2103                 1.8945
 IR Inten    --      0.1448                 6.6828                 2.0558

                     25                     26                     27
                     A'                     A"                     A'
 Frequencies --   1270.0988              1335.2034              1371.4317
 Red. masses --      2.7607                 1.3222                 1.4329
 Frc consts  --      2.6239                 1.3888                 1.5879
 IR Inten    --      3.0170                 0.7140                 0.0016

                     28                     29                     30
                     A'                     A"                     A'
 Frequencies --   1398.6487              1399.5779              1413.4888
 Red. masses --      1.2326                 1.2334                 1.2336
 Frc consts  --      1.4207                 1.4235                 1.4521
 IR Inten    --      6.3323                 8.5224                 6.9680

                     31                     32                     33
                     A'                     A'                     A"
 Frequencies --   1431.2728              1480.8952              1481.6818
 Red. masses --      1.2263                 1.0644                 1.0480
 Frc consts  --      1.4802                 1.3753                 1.3555
 IR Inten    --      4.1571                 0.0534                 0.1385

                     34                     35                     36
                     A"                     A'                     A"
 Frequencies --   1487.0157              1490.3075              1502.1905
 Red. masses --      1.0438                 1.0479                 1.0441
 Frc consts  --      1.3598                 1.3713                 1.3882
 IR Inten    --      0.2602                 0.1199                12.2346

                     37                     38                     39
                     A'                     A'                     A"
 Frequencies --   1507.9484              1510.2341              1512.2428
 Red. masses --      1.0725                 1.0485                 1.0542
 Frc consts  --      1.4369                 1.4089                 1.4204
 IR Inten    --      6.1704                 6.9007                 0.0285

                     40                     41                     42
                     A'                     A'                     A'
 Frequencies --   1518.9756              3004.7873              3017.1473
 Red. masses --      1.0601                 1.0582                 1.0344
 Frc consts  --      1.4411                 5.6291                 5.5481
 IR Inten    --     14.6857                29.6356                35.8485

                     43                     44                     45
                     A"                     A'                     A"
 Frequencies --   3020.1794              3027.7686              3033.6132
 Red. masses --      1.0350                 1.0367                 1.1026
 Frc consts  --      5.5621                 5.5997                 5.9784
 IR Inten    --     40.9630                17.6821                17.5101

                     46                     47                     48
                     A'                     A"                     A'
 Frequencies --   3035.4480              3078.0753              3078.5577
 Red. masses --      1.0359                 1.1020                 1.1018
 Frc consts  --      5.6238                 6.1517                 6.1526
 IR Inten    --     18.6427                 0.1027                 1.1726

                     49                     50                     51
                     A"                     A'                     A'
 Frequencies --   3081.7206              3085.1473              3088.1649
 Red. masses --      1.1017                 1.1008                 1.1007
 Frc consts  --      6.1645                 6.1729                 6.1845
 IR Inten    --     31.3494                44.3281                79.6811

                     52                     53                     54
                     A"                     A'                     A"
 Frequencies --   3088.5330              3096.1629              3100.5905
 Red. masses --      1.1012                 1.0991                 1.1013
 Frc consts  --      6.1889                 6.2080                 6.2379
 IR Inten    --     35.5310                60.2375                30.6802

 - Thermochemistry -
 -------------------
 Temperature   298.150 Kelvin.  Pressure   1.00000 Atm.
 Atom     1 has atomic number  6 and mass  12.00000

 Molecular mass:    86.10955 amu.
 Principal axes and moments of inertia in atomic units:
                           1         2         3
     Eigenvalues --   420.91778 726.62901 729.17726
           X            0.86977   0.49345   0.00000
           Y           -0.49345   0.86977   0.00000
           Z           -0.00000  -0.00000   1.00000
 This molecule is an asymmetric top.
 Rotational symmetry number  1.
 Rotational temperatures (Kelvin)      0.20577     0.11920     0.11878
 Rotational constants (GHZ):           4.28763     2.48372     2.47504
 Zero-point vibrational energy     491616.0 (Joules/Mol)
                                  117.49904 (Kcal/Mol)
 Warning -- explicit consideration of  11 degrees of freedom as
           vibrations may cause significant error
 Vibrational temperatures:    129.56   298.18   353.65   366.00   383.98
          (Kelvin)            402.71   479.33   509.94   585.14   600.91
                              697.34  1017.83  1131.16  1249.64  1340.18
                             1340.39  1383.04  1439.46  1456.94  1473.20
                             1575.36  1588.78  1777.42  1792.31  1827.39
                             1921.06  1973.18  2012.34  2013.68  2033.70
                             2059.28  2130.68  2131.81  2139.48  2144.22
                             2161.32  2169.60  2172.89  2175.78  2185.47
                             4323.22  4341.00  4345.36  4356.28  4364.69
                             4367.33  4428.66  4429.36  4433.91  4438.84
                             4443.18  4443.71  4454.69  4461.06

 Zero-point correction=                           0.187247 (Hartree/Particle)
 Thermal correction to Energy=                    0.195511
 Thermal correction to Enthalpy=                  0.196456
 Thermal correction to Gibbs Free Energy=         0.155983
 Sum of electronic and zero-point Energies=           -236.993285
 Sum of electronic and thermal Energies=              -236.985020
 Sum of electronic and thermal Enthalpies=            -236.984076
 Sum of electronic and thermal Free Energies=         -237.024549

                     E (Thermal)             CV                S
                      KCal/Mol        Cal/Mol-Kelvin    Cal/Mol-Kelvin
 Total                  122.685             30.948             85.182
 Electronic               0.000              0.000              0.000
 Translational            0.889              2.981             39.272
 Rotational               0.889              2.981             26.903
 Vibrational            120.908             24.986             19.007
 Vibration     1          0.602              1.956              3.659
 Vibration     2          0.641              1.830              2.068
 Vibration     3          0.660              1.770              1.761
 Vibration     4          0.665              1.755              1.700
 Vibration     5          0.672              1.734              1.616
 Vibration     6          0.680              1.711              1.534
 Vibration     7          0.715              1.609              1.245
 Vibration     8          0.730              1.566              1.146
 Vibration     9          0.771              1.456              0.938
 Vibration    10          0.781              1.432              0.900
 Vibration    11          0.841              1.284              0.698

 Optimization completed.
    -- Stationary point found.
 Normal termination of Gaussian 16 at Sat Sep 30 13:29:52 2023.
 Gaussian 16:  ES64L-G16RevB.01 20-Dec-2017

 ---------------------------------
 # rohf/gen geom=check guess=check
 ---------------------------------

 ---------------------------
 neohexane, ROHF/cc-pVTZ-F12
 ---------------------------
 Structure from the checkpoint file:  "neohexane.chk"
 Charge =  0 Multiplicity = 1

                         Standard orientation:
 ---------------------------------------------------------------------
 Center     Atomic      Atomic             Coordinates (Angstroms)
 Number     Number       Type             X           Y           Z
 ---------------------------------------------------------------------
      1          6           0        1.909939   -1.068306    0.000000
      2          6           0        1.170157    0.270247    0.000000
      3          6           0       -0.377084    0.217818    0.000000
      4          6           0       -0.899726    1.663627    0.000000
      5          6           0       -0.899726   -0.498715    1.255297
      6          6           0       -0.899726   -0.498715   -1.255297
      7          1           0       -1.991221    1.686273    0.000000
      8          1           0        2.988323   -0.903422    0.000000
      9          1           0       -0.530090   -0.019297    2.164312
     10          1           0       -0.530090   -0.019297   -2.164312
     11          1           0       -0.596731   -1.545787    1.281459
     12          1           0       -0.596731   -1.545787   -1.281459
     13          1           0       -1.990684   -0.473122    1.286617
     14          1           0       -1.990684   -0.473122   -1.286617
     15          1           0        1.674453   -1.665993    0.881037
     16          1           0        1.674453   -1.665993   -0.881037
     17          1           0        1.487658    0.848119    0.873405
     18          1           0        1.487658    0.848119   -0.873405
     19          1           0       -0.554654    2.206788    0.882147
     20          1           0       -0.554654    2.206788   -0.882147
 ---------------------------------------------------------------------

 SCF Done:  E(ROHF) =  -235.460748133     A.U. after   10 cycles

 The electronic state is 1-A'.
 Alpha  occ. eigenvalues --  -11.22863 -11.21249 -11.20694 -11.20500 -11.20498
 Alpha  occ. eigenvalues --  -11.20493  -1.10569  -0.99591  -0.92738  -0.92706
 Alpha  occ. eigenvalues --   -0.84946  -0.72282  -0.62277  -0.62200  -0.59583
 Alpha  occ. eigenvalues --   -0.58049  -0.55041  -0.53070  -0.52480  -0.50941
 Alpha  occ. eigenvalues --   -0.50048  -0.48524  -0.44794  -0.44513  -0.43748
 Alpha virt. eigenvalues --    0.04217   0.04822   0.05106   0.05168   0.06795
 Alpha virt. eigenvalues --    0.07962   0.08029   0.08554   0.08868   0.10916
 Alpha virt. eigenvalues --    0.11092   0.11519   0.11692   0.12078   0.12687

 Mulliken charges and spin densities:
               1          2
     1  C   -0.344071   0.000000
     2  C   -0.147228   0.000000
     3  C    0.268619   0.000000
     4  C   -0.365114   0.000000
     5  C   -0.392256   0.000000
     6  C   -0.392256   0.000000
     7  H    0.102375   0.000000
     8  H    0.091806   0.000000
     9  H    0.111587   0.000000
    10  H    0.111587   0.000000
    11  H    0.096472   0.000000
    12  H    0.096472   0.000000
    13  H    0.102516   0.000000
    14  H    0.102516   0.000000
    15  H    0.094564   0.000000
    16  H    0.094564   0.000000
    17  H    0.078641   0.000000
    18  H    0.078641   0.000000
    19  H    0.105283   0.000000
    20  H    0.105283   0.000000
 Sum of Mulliken charges =  -0.00000   0.00000

 Dipole moment (field-independent basis, Debye):
    X=              0.0514    Y=              0.0065    Z=             -0.0000  Tot=              0.0518
 Quadrupole moment (field-independent basis, Debye-Ang):
   XX=            -42.3858   YY=            -42.8546   ZZ=            -42.3433
   XY=              0.2626   XZ=              0.0000   YZ=              0.0000

 Normal termination of Gaussian 16 at Sat Sep 30 13:38:12 2023.
