 Gaussian 16, Revision B.01,
 Gaussian 16:  ES64L-G16RevB.01 20-Dec-2017

 --------------------
 # b3lyp/gen opt freq
 --------------------

 ------------------------
 neohexane, B3LYP/pcseg-2
 ------------------------
 Symbolic Z-matrix:
 Charge =  0 Multiplicity = 1

 SCF Done:  E(RB3LYP) =  -237.180426910     A.U. after   11 cycles
 SCF Done:  E(RB3LYP) =  -237.180529208     A.U. after    8 cycles
 SCF Done:  E(RB3LYP) =  -237.180531377     A.U. after    6 cycles
 SCF Done:  E(RB3LYP) =  -237.180531737     A.U. after    6 cycles
 Optimization completed.
    -- Stationary point found.
 Normal termination of Gaussian 16 at Tue Sep 12 11:15:08 2023.

 ------------------------------------------------------------------
 #N Geom=AllCheck Guess=TCheck SCRF=Check GenChk RB3LYP/ChkBas Freq
 ------------------------------------------------------------------

 Structure from the checkpoint file:  "/wrk/irikura/Gau-336354.chk"
 ------------------------
 neohexane, B3LYP/pcseg-2
 ------------------------
 Charge =  0 Multiplicity = 1

                         Standard orientation:
 ---------------------------------------------------------------------
 Center     Atomic      Atomic             Coordinates (Angstroms)
 Number     Number       Type             X           Y           Z
 ---------------------------------------------------------------------
      1          6           0        1.909939   -1.068306    0.000000
      2          6           0        1.170157    0.270247    0.000000
      3          6           0       -0.377084    0.217818    0.000000
      4          6           0       -0.899726    1.663627    0.000000
      5          6           0       -0.899726   -0.498715    1.255297
      6          6           0       -0.899726   -0.498715   -1.255297
      7          1           0       -1.991221    1.686273    0.000000
      8          1           0        2.988323   -0.903422    0.000000
      9          1           0       -0.530090   -0.019297    2.164312
     10          1           0       -0.530090   -0.019297   -2.164312
     11          1           0       -0.596731   -1.545787    1.281459
     12          1           0       -0.596731   -1.545787   -1.281459
     13          1           0       -1.990684   -0.473122    1.286617
     14          1           0       -1.990684   -0.473122   -1.286617
     15          1           0        1.674453   -1.665993    0.881037
     16          1           0        1.674453   -1.665993   -0.881037
     17          1           0        1.487658    0.848119    0.873405
     18          1           0        1.487658    0.848119   -0.873405
     19          1           0       -0.554654    2.206788    0.882147
     20          1           0       -0.554654    2.206788   -0.882147
 ---------------------------------------------------------------------

 SCF Done:  E(RB3LYP) =  -237.180531737     A.U. after    1 cycles

 The electronic state is 1-A'.
 Alpha  occ. eigenvalues --  -10.17988 -10.16232 -10.15633 -10.15452 -10.15451
 Alpha  occ. eigenvalues --  -10.15440  -0.82466  -0.73768  -0.68432  -0.68416
 Alpha  occ. eigenvalues --   -0.62397  -0.52849  -0.46040  -0.45917  -0.43877
 Alpha  occ. eigenvalues --   -0.42513  -0.40098  -0.38377  -0.37844  -0.36478
 Alpha  occ. eigenvalues --   -0.35972  -0.34575  -0.31887  -0.31771  -0.31130
 Alpha virt. eigenvalues --    0.00948   0.03622   0.04559   0.04617   0.06334
 Alpha virt. eigenvalues --    0.06548   0.06848   0.08678   0.08791   0.10050
 Alpha virt. eigenvalues --    0.11226   0.11984   0.12036   0.12725   0.14127

 Mulliken charges:
               1
     1  C   -0.072025
     2  C   -0.049351
     3  C    0.075144
     4  C   -0.104596
     5  C   -0.105921
     6  C   -0.105921
     7  H    0.027804
     8  H    0.029817
     9  H    0.028694
    10  H    0.028694
    11  H    0.029475
    12  H    0.029475
    13  H    0.027466
    14  H    0.027466
    15  H    0.023821
    16  H    0.023821
    17  H    0.016447
    18  H    0.016447
    19  H    0.026623
    20  H    0.026623
 Sum of Mulliken charges =  -0.00000

 Dipole moment (field-independent basis, Debye):
    X=              0.0604    Y=              0.0078    Z=             -0.0000  Tot=              0.0609
 Quadrupole moment (field-independent basis, Debye-Ang):
   XX=            -42.5014   YY=            -43.0705   ZZ=            -42.5635
   XY=              0.2293   XZ=              0.0000   YZ=              0.0000

  Exact polarizability:  78.691  -3.356  75.901   0.000   0.000  73.380
 Approx polarizability: 103.778  -0.090 103.197  -0.000   0.000 103.098

                      1                      2                      3
                     A"                     A"                     A"
 Frequencies --     90.0480               207.2451               245.8011
 Red. masses --      1.6877                 1.0303                 1.1013
 Frc consts  --      0.0081                 0.0261                 0.0392
 IR Inten    --      0.0027                 0.0059                 0.0013

                      4                      5                      6
                     A'                     A'                     A"
 Frequencies --    254.3828               266.8770               279.8963
 Red. masses --      2.3185                 1.0738                 1.1003
 Frc consts  --      0.0884                 0.0451                 0.0508
 IR Inten    --      0.0215                 0.0334                 0.0000

                      7                      8                      9
                     A"                     A'                     A'
 Frequencies --    333.1535               354.4277               406.6906
 Red. masses --      2.0753                 2.2643                 2.2266
 Frc consts  --      0.1357                 0.1676                 0.2170
 IR Inten    --      0.0032                 0.0099                 0.0718

                     10                     11                     12
                     A"                     A'                     A'
 Frequencies --    417.6547               484.6791               707.4262
 Red. masses --      1.9973                 2.4038                 3.0905
 Frc consts  --      0.2053                 0.3327                 0.9113
 IR Inten    --      0.0543                 0.2314                 0.2181

                     13                     14                     15
                     A"                     A'                     A'
 Frequencies --    786.2061               868.5434               931.4602
 Red. masses --      1.1886                 2.0565                 1.7779
 Frc consts  --      0.4329                 0.9140                 0.9088
 IR Inten    --      2.0958                 0.1457                 0.6152

                     16                     17                     18
                     A"                     A"                     A"
 Frequencies --    931.6140               961.2437              1000.4700
 Red. masses --      1.8288                 1.2028                 1.2725
 Frc consts  --      0.9352                 0.6548                 0.7504
 IR Inten    --      0.0156                 0.0144                 0.5618

                     19                     20                     21
                     A'                     A'                     A'
 Frequencies --   1012.6193              1023.9226              1094.9305
 Red. masses --      1.3026                 2.3625                 1.6667
 Frc consts  --      0.7869                 1.4593                 1.1773
 IR Inten    --      2.1871                 2.2117                 1.7211

                     22                     23                     24
                     A"                     A'                     A"
 Frequencies --   1104.2527              1235.3675              1245.7156
 Red. masses --      1.4176                 2.4581                 2.0721
 Frc consts  --      1.0185                 2.2103                 1.8945
 IR Inten    --      0.1447                 6.6810                 2.0553

                     25                     26                     27
                     A'                     A"                     A'
 Frequencies --   1270.0983              1335.2028              1371.4283
 Red. masses --      2.7606                 1.3222                 1.4330
 Frc consts  --      2.6238                 1.3888                 1.5879
 IR Inten    --      3.0168                 0.7143                 0.0015

                     28                     29                     30
                     A'                     A"                     A'
 Frequencies --   1398.6412              1399.5731              1413.4924
 Red. masses --      1.2326                 1.2334                 1.2336
 Frc consts  --      1.4207                 1.4235                 1.4521
 IR Inten    --      6.3390                 8.5269                 6.9629

                     31                     32                     33
                     A'                     A'                     A"
 Frequencies --   1431.2722              1480.8828              1481.6751
 Red. masses --      1.2264                 1.0644                 1.0480
 Frc consts  --      1.4802                 1.3753                 1.3555
 IR Inten    --      4.1591                 0.0532                 0.1381

                     34                     35                     36
                     A"                     A'                     A"
 Frequencies --   1487.0065              1490.2892              1502.1896
 Red. masses --      1.0438                 1.0479                 1.0441
 Frc consts  --      1.3598                 1.3713                 1.3882
 IR Inten    --      0.2586                 0.1193                12.2400

                     37                     38                     39
                     A'                     A'                     A"
 Frequencies --   1507.9515              1510.2315              1512.2354
 Red. masses --      1.0725                 1.0485                 1.0542
 Frc consts  --      1.4369                 1.4089                 1.4204
 IR Inten    --      6.1688                 6.9043                 0.0286

                     40                     41                     42
                     A'                     A'                     A'
 Frequencies --   1518.9769              3004.7758              3017.1353
 Red. masses --      1.0601                 1.0582                 1.0344
 Frc consts  --      1.4411                 5.6290                 5.5481
 IR Inten    --     14.6809                29.6065                35.8453

                     43                     44                     45
                     A"                     A'                     A"
 Frequencies --   3020.1745              3027.7711              3033.5994
 Red. masses --      1.0350                 1.0367                 1.1026
 Frc consts  --      5.5621                 5.5997                 5.9783
 IR Inten    --     40.9394                17.6711                17.5218

                     46                     47                     48
                     A'                     A"                     A'
 Frequencies --   3035.4502              3078.0555              3078.5276
 Red. masses --      1.0359                 1.1020                 1.1018
 Frc consts  --      5.6238                 6.1516                 6.1525
 IR Inten    --     18.6582                 0.1008                 1.1478

                     49                     50                     51
                     A"                     A'                     A'
 Frequencies --   3081.7084              3085.1402              3088.1712
 Red. masses --      1.1017                 1.1007                 1.1007
 Frc consts  --      6.1644                 6.1729                 6.1845
 IR Inten    --     31.4224                44.5063                79.5387

                     52                     53                     54
                     A"                     A'                     A"
 Frequencies --   3088.5361              3096.1627              3100.5867
 Red. masses --      1.1012                 1.0991                 1.1013
 Frc consts  --      6.1889                 6.2080                 6.2379
 IR Inten    --     35.4295                60.2377                30.7120

 - Thermochemistry -
 -------------------
 Temperature   298.150 Kelvin.  Pressure   1.00000 Atm.
 Atom     1 has atomic number  6 and mass  12.00000

 Molecular mass:    86.10955 amu.
 Principal axes and moments of inertia in atomic units:
                           1         2         3
     Eigenvalues --   420.91773 726.62901 729.17726
           X            0.86977   0.49345   0.00000
           Y           -0.49345   0.86977   0.00000
           Z            0.00000  -0.00000   1.00000
 This molecule is an asymmetric top.
 Rotational symmetry number  1.
 Rotational temperatures (Kelvin)      0.20577     0.11920     0.11878
 Rotational constants (GHZ):           4.28763     2.48372     2.47504
 Zero-point vibrational energy     491614.8 (Joules/Mol)
                                  117.49875 (Kcal/Mol)
 Warning -- explicit consideration of  11 degrees of freedom as
           vibrations may cause significant error
 Vibrational temperatures:    129.56   298.18   353.65   366.00   383.98
          (Kelvin)            402.71   479.33   509.94   585.14   600.91
                              697.35  1017.83  1131.18  1249.64  1340.16
                             1340.38  1383.02  1439.45  1456.93  1473.20
                             1575.36  1588.77  1777.42  1792.31  1827.39
                             1921.06  1973.18  2012.33  2013.67  2033.70
                             2059.28  2130.66  2131.80  2139.47  2144.19
                             2161.32  2169.61  2172.89  2175.77  2185.47
                             4323.20  4340.98  4345.36  4356.29  4364.67
                             4367.34  4428.64  4429.31  4433.89  4438.83
                             4443.19  4443.71  4454.69  4461.05

 Zero-point correction=                           0.187246 (Hartree/Particle)
 Thermal correction to Energy=                    0.195511
 Thermal correction to Enthalpy=                  0.196455
 Thermal correction to Gibbs Free Energy=         0.155982
 Sum of electronic and zero-point Energies=           -236.993286
 Sum of electronic and thermal Energies=              -236.985021
 Sum of electronic and thermal Enthalpies=            -236.984077
 Sum of electronic and thermal Free Energies=         -237.024549

                     E (Thermal)             CV                S
                      KCal/Mol        Cal/Mol-Kelvin    Cal/Mol-Kelvin
 Total                  122.685             30.948             85.182
 Electronic               0.000              0.000              0.000
 Translational            0.889              2.981             39.272
 Rotational               0.889              2.981             26.903
 Vibrational            120.908             24.986             19.007
 Vibration     1          0.602              1.956              3.659
 Vibration     2          0.641              1.830              2.068
 Vibration     3          0.660              1.770              1.760
 Vibration     4          0.665              1.755              1.700
 Vibration     5          0.672              1.734              1.616
 Vibration     6          0.680              1.711              1.534
 Vibration     7          0.715              1.609              1.245
 Vibration     8          0.730              1.566              1.146
 Vibration     9          0.771              1.456              0.938
 Vibration    10          0.781              1.432              0.900
 Vibration    11          0.841              1.284              0.698

 Optimization completed.
    -- Stationary point found.
 Normal termination of Gaussian 16 at Tue Sep 12 11:24:08 2023.
