 Gaussian 16, Revision B.01,
 Gaussian 16:  ES64L-G16RevB.01 20-Dec-2017

 --------------------
 # b3lyp/gen opt freq
 --------------------

 -----------------
 NH, B3LYP/pcseg-2
 -----------------
 Symbolic Z-matrix:
 Charge =  0 Multiplicity = 3

 SCF Done:  E(UB3LYP) =  -55.2442818722     A.U. after   11 cycles
 SCF Done:  E(UB3LYP) =  -55.2454565128     A.U. after   10 cycles
 SCF Done:  E(UB3LYP) =  -55.2454676840     A.U. after    8 cycles
 Optimization completed.
    -- Stationary point found.
 Normal termination of Gaussian 16 at Wed Jun 15 11:02:37 2022.

 ------------------------------------------------------------------
 #N Geom=AllCheck Guess=TCheck SCRF=Check GenChk UB3LYP/ChkBas Freq
 ------------------------------------------------------------------

 Structure from the checkpoint file:  "/wrk/irikura/Gau-7345.chk"
 -----------------
 NH, B3LYP/pcseg-2
 -----------------
 Charge =  0 Multiplicity = 3

                         Standard orientation:
 ---------------------------------------------------------------------
 Center     Atomic      Atomic             Coordinates (Angstroms)
 Number     Number       Type             X           Y           Z
 ---------------------------------------------------------------------
      1          7           0        0.000000    0.000000    0.130018
      2          1           0        0.000000    0.000000   -0.910123
 ---------------------------------------------------------------------

 SCF Done:  E(UB3LYP) =  -55.2454676840     A.U. after    1 cycles

 The electronic state is 3-SG.
 Alpha  occ. eigenvalues --  -14.39791  -0.84831  -0.41012  -0.34286  -0.34286
 Alpha virt. eigenvalues --    0.01363   0.25407   0.25698   0.25698   0.27010
 Alpha virt. eigenvalues --    0.37549   0.74293   0.74293   1.05287   1.14396
 Alpha virt. eigenvalues --    1.14396   1.30157   1.49183   1.49183   1.71362

  Beta  occ. eigenvalues --  -14.35734  -0.73772  -0.36569
  Beta virt. eigenvalues --   -0.11851  -0.11851   0.02182   0.26474   0.28839
  Beta virt. eigenvalues --    0.31071   0.31071   0.40068   0.76349   0.76349
  Beta virt. eigenvalues --    1.06254   1.25040   1.25040   1.32409   1.54019

 Mulliken charges and spin densities:
               1          2
     1  N   -0.120399   2.025390
     2  H    0.120399  -0.025390
 Sum of Mulliken charges =  -0.00000   2.00000

 Dipole moment (field-independent basis, Debye):
    X=              0.0000    Y=              0.0000    Z=             -1.6023  Tot=              1.6023
 Quadrupole moment (field-independent basis, Debye-Ang):
   XX=             -6.4057   YY=             -6.4057   ZZ=             -6.0056
   XY=              0.0000   XZ=              0.0000   YZ=              0.0000

  Exact polarizability:   6.453  -0.000   6.453  -0.000  -0.000  10.493
 Approx polarizability:   7.039  -0.000   7.039  -0.000  -0.000  12.536

                      1
                     SG
 Frequencies --   3258.1740
 Red. masses --      1.0748
 Frc consts  --      6.7224
 IR Inten    --     24.8956

 - Thermochemistry -
 -------------------
 Temperature   298.150 Kelvin.  Pressure   1.00000 Atm.
 Atom     1 has atomic number  7 and mass  14.00307

 Molecular mass:    15.01090 amu.
 Principal axes and moments of inertia in atomic units:
                           1         2         3
     Eigenvalues --     0.00000   3.63232   3.63232
           X            0.00000  -0.00000   1.00000
           Y            0.00000   1.00000   0.00000
           Z            1.00000   0.00000   0.00000
 This molecule is a prolate symmetric top.
 Rotational symmetry number  1.
 Rotational temperature (Kelvin)     23.84537
 Rotational constant (GHZ):         496.856891
 Zero-point vibrational energy      19488.2 (Joules/Mol)
                                    4.65779 (Kcal/Mol)
 Vibrational temperatures:   4687.79
          (Kelvin)

 Zero-point correction=                           0.007423 (Hartree/Particle)
 Thermal correction to Energy=                    0.009783
 Thermal correction to Enthalpy=                  0.010727
 Thermal correction to Gibbs Free Energy=        -0.009825
 Sum of electronic and zero-point Energies=            -55.238045
 Sum of electronic and thermal Energies=               -55.235685
 Sum of electronic and thermal Enthalpies=             -55.234740
 Sum of electronic and thermal Free Energies=          -55.255292

                     E (Thermal)             CV                S
                      KCal/Mol        Cal/Mol-Kelvin    Cal/Mol-Kelvin
 Total                    6.139              4.968             43.255
 Electronic               0.000              0.000              2.183
 Translational            0.889              2.981             34.065
 Rotational               0.592              1.987              7.007
 Vibrational              4.658              0.000              0.000

 Optimization completed.
    -- Stationary point found.
 Normal termination of Gaussian 16 at Wed Jun 15 11:02:45 2022.
