 Gaussian 16, Revision B.01,
 Gaussian 16:  ES64L-G16RevB.01 20-Dec-2017

 --------------------
 # b3lyp/gen opt freq
 --------------------

 ------------------
 NH2, B3LYP/pcseg-2
 ------------------
 Symbolic Z-matrix:
 Charge =  0 Multiplicity = 2

 SCF Done:  E(UB3LYP) =  -55.9055340840     A.U. after   11 cycles
 SCF Done:  E(UB3LYP) =  -55.9065795375     A.U. after   10 cycles
 SCF Done:  E(UB3LYP) =  -55.9066165573     A.U. after    8 cycles
 Optimization completed.
    -- Stationary point found.
 Normal termination of Gaussian 16 at Wed Jun 15 11:02:12 2022.

 ------------------------------------------------------------------
 #N Geom=AllCheck Guess=TCheck SCRF=Check GenChk UB3LYP/ChkBas Freq
 ------------------------------------------------------------------

 Structure from the checkpoint file:  "/wrk/irikura/Gau-7321.chk"
 ------------------
 NH2, B3LYP/pcseg-2
 ------------------
 Charge =  0 Multiplicity = 2

                         Standard orientation:
 ---------------------------------------------------------------------
 Center     Atomic      Atomic             Coordinates (Angstroms)
 Number     Number       Type             X           Y           Z
 ---------------------------------------------------------------------
      1          7           0        0.000000    0.000000    0.141655
      2          1           0       -0.000000    0.804862   -0.495791
      3          1           0       -0.000000   -0.804862   -0.495791
 ---------------------------------------------------------------------

 SCF Done:  E(UB3LYP) =  -55.9066165573     A.U. after    1 cycles

 The electronic state is 2-B1.
 Alpha  occ. eigenvalues --  -14.35052  -0.86076  -0.47993  -0.33575  -0.32406
 Alpha virt. eigenvalues --    0.00549   0.06690   0.23935   0.26006   0.26149
 Alpha virt. eigenvalues --    0.30902   0.38927   0.40354   0.66648   0.71709
 Alpha virt. eigenvalues --    0.80493   0.98016   1.10602   1.11338   1.26401

  Beta  occ. eigenvalues --  -14.33019  -0.80796  -0.46611  -0.31189
  Beta virt. eigenvalues --   -0.12317   0.01022   0.06912   0.24025   0.26953
  Beta virt. eigenvalues --    0.30925   0.32164   0.40683   0.41102   0.66906
  Beta virt. eigenvalues --    0.73638   0.82785   0.97927   1.11204   1.11368

 Mulliken charges and spin densities:
               1          2
     1  N   -0.233912   1.042162
     2  H    0.116956  -0.021081
     3  H    0.116956  -0.021081
 Sum of Mulliken charges =  -0.00000   1.00000

 Dipole moment (field-independent basis, Debye):
    X=             -0.0000    Y=             -0.0000    Z=             -1.9190  Tot=              1.9190
 Quadrupole moment (field-independent basis, Debye-Ang):
   XX=             -7.2156   YY=             -5.6203   ZZ=             -7.7608
   XY=              0.0000   XZ=              0.0000   YZ=              0.0000

  Exact polarizability:   7.803  -0.000  11.544   0.000  -0.000  10.561
 Approx polarizability:   8.550   0.000  14.369   0.000   0.000  12.447

                      1                      2                      3
                     A1                     A1                     B2
 Frequencies --   1526.6472              3353.0629              3444.5275
 Red. masses --      1.0919                 1.0496                 1.0900
 Frc consts  --      1.4994                 6.9526                 7.6199
 IR Inten    --     21.2580                11.6762                 1.4001

 - Thermochemistry -
 -------------------
 Temperature   298.150 Kelvin.  Pressure   1.00000 Atm.
 Atom     1 has atomic number  7 and mass  14.00307

 Molecular mass:    16.01872 amu.
 Principal axes and moments of inertia in atomic units:
                           1         2         3
     Eigenvalues --     2.55679   4.66289   7.21968
           X            0.00000   0.00000   1.00000
           Y            1.00000  -0.00000  -0.00000
           Z            0.00000   1.00000  -0.00000
 This molecule is an asymmetric top.
 Rotational symmetry number  2.
 Rotational temperatures (Kelvin)     33.87601    18.57515    11.99691
 Rotational constants (GHZ):         705.86152   387.04331   249.97509
 Zero-point vibrational energy      49790.0 (Joules/Mol)
                                   11.90010 (Kcal/Mol)
 Vibrational temperatures:   2196.50  4824.31  4955.91
          (Kelvin)

 Zero-point correction=                           0.018964 (Hartree/Particle)
 Thermal correction to Energy=                    0.021801
 Thermal correction to Enthalpy=                  0.022745
 Thermal correction to Gibbs Free Energy=         0.000652
 Sum of electronic and zero-point Energies=            -55.887653
 Sum of electronic and thermal Energies=               -55.884816
 Sum of electronic and thermal Enthalpies=             -55.883871
 Sum of electronic and thermal Free Energies=          -55.905965

                     E (Thermal)             CV                S
                      KCal/Mol        Cal/Mol-Kelvin    Cal/Mol-Kelvin
 Total                   13.680              6.030             46.499
 Electronic               0.000              0.000              1.377
 Translational            0.889              2.981             34.259
 Rotational               0.889              2.981             10.852
 Vibrational             11.903              0.068              0.011

 Optimization completed.
    -- Stationary point found.
 Normal termination of Gaussian 16 at Wed Jun 15 11:02:29 2022.
