 Gaussian 16, Revision B.01,
 Gaussian 16:  ES64L-G16RevB.01 20-Dec-2017

 --------------------
 # b3lyp/gen opt freq
 --------------------

 ------------------------
 carbamoyl, B3LYP/pcseg-2
 ------------------------
 Symbolic Z-matrix:
 Charge =  0 Multiplicity = 2

 SCF Done:  E(UB3LYP) =  -169.315837703     A.U. after   15 cycles
 SCF Done:  E(UB3LYP) =  -169.315895648     A.U. after   10 cycles
 SCF Done:  E(UB3LYP) =  -169.315897623     A.U. after    9 cycles
 Optimization completed.
    -- Stationary point found.
 Normal termination of Gaussian 16 at Wed Jun 15 16:17:16 2022.

 ------------------------------------------------------------------
 #N Geom=AllCheck Guess=TCheck SCRF=Check GenChk UB3LYP/ChkBas Freq
 ------------------------------------------------------------------

 Structure from the checkpoint file:  "/wrk/irikura/Gau-23633.chk"
 ------------------------
 carbamoyl, B3LYP/pcseg-2
 ------------------------
 Charge =  0 Multiplicity = 2

                         Standard orientation:
 ---------------------------------------------------------------------
 Center     Atomic      Atomic             Coordinates (Angstroms)
 Number     Number       Type             X           Y           Z
 ---------------------------------------------------------------------
      1          6           0       -0.000000    0.436929   -0.000000
      2          7           0        0.969684   -0.484342   -0.000000
      3          8           0       -1.184048    0.305634    0.000000
      4          1           0        0.753113   -1.473891   -0.000000
      5          1           0        1.931487   -0.202368   -0.000000
 ---------------------------------------------------------------------

 SCF Done:  E(UB3LYP) =  -169.315897623     A.U. after    1 cycles

 The electronic state is 2-A'.
 Alpha  occ. eigenvalues --  -19.14919 -14.37076 -10.28263  -1.08584  -0.94388
 Alpha  occ. eigenvalues --   -0.62947  -0.57314  -0.48982  -0.44047  -0.40901
 Alpha  occ. eigenvalues --   -0.31427  -0.21924
 Alpha virt. eigenvalues --    0.00076   0.01149   0.04333   0.12412   0.16504
 Alpha virt. eigenvalues --    0.16703   0.18361   0.21833   0.28252   0.29923
 Alpha virt. eigenvalues --    0.31159   0.35004   0.41061   0.42174   0.43595

  Beta  occ. eigenvalues --  -19.14001 -14.36807 -10.27182  -1.06902  -0.93419
  Beta  occ. eigenvalues --   -0.61424  -0.56448  -0.47011  -0.43175  -0.36043
  Beta  occ. eigenvalues --   -0.31093
  Beta virt. eigenvalues --   -0.08511   0.00726   0.03101   0.04626   0.12854
  Beta virt. eigenvalues --    0.17047   0.17530   0.18975   0.22659   0.28660
  Beta virt. eigenvalues --    0.30019   0.32171   0.35269   0.41584   0.43014

 Mulliken charges and spin densities:
               1          2
     1  C    0.269484   0.697216
     2  N   -0.258281  -0.037086
     3  O   -0.334997   0.267221
     4  H    0.147328   0.078618
     5  H    0.176467  -0.005970
 Sum of Mulliken charges =  -0.00000   1.00000

 Dipole moment (field-independent basis, Debye):
    X=              3.2578    Y=             -1.7658    Z=             -0.0000  Tot=              3.7055
 Quadrupole moment (field-independent basis, Debye-Ang):
   XX=            -16.5464   YY=            -16.1461   ZZ=            -18.2742
   XY=             -0.2988   XZ=              0.0000   YZ=             -0.0000

  Exact polarizability:  31.810  -2.972  25.539   0.000   0.000  16.940
 Approx polarizability:  48.969  -3.866  32.551  -0.000   0.000  22.026

                      1                      2                      3
                     A"                     A'                     A"
 Frequencies --    310.6755               531.7489               629.0543
 Red. masses --      1.2627                 3.0241                 1.4532
 Frc consts  --      0.0718                 0.5038                 0.3388
 IR Inten    --    210.5084                 5.2676                 0.4501

                      4                      5                      6
                     A'                     A'                     A'
 Frequencies --   1099.8187              1225.9422              1609.9215
 Red. masses --      1.7860                 3.7392                 1.1482
 Frc consts  --      1.2728                 3.3111                 1.7533
 IR Inten    --      0.5618                51.8413                57.9388

                      7                      8                      9
                     A'                     A'                     A'
 Frequencies --   1853.5538              3482.7357              3702.8794
 Red. masses --     12.1270                 1.0529                 1.0928
 Frc consts  --     24.5478                 7.5247                 8.8285
 IR Inten    --    348.4375                 2.8895                73.1538

 - Thermochemistry -
 -------------------
 Temperature   298.150 Kelvin.  Pressure   1.00000 Atm.
 Atom     1 has atomic number  6 and mass  12.00000

 Molecular mass:    44.01364 amu.
 Principal axes and moments of inertia in atomic units:
                           1         2         3
     Eigenvalues --    14.06719 160.91717 174.98436
           X            0.93335   0.35896   0.00000
           Y           -0.35896   0.93335   0.00000
           Z           -0.00000   0.00000   1.00000
 This molecule is an asymmetric top.
 Rotational symmetry number  1.
 Rotational temperatures (Kelvin)      6.15716     0.53825     0.49498
 Rotational constants (GHZ):         128.29436    11.21534    10.31373
 Zero-point vibrational energy      86408.2 (Joules/Mol)
                                   20.65207 (Kcal/Mol)
 Warning -- explicit consideration of   2 degrees of freedom as
           vibrations may cause significant error
 Vibrational temperatures:    446.99   765.07   905.07  1582.39  1763.86
          (Kelvin)           2316.32  2666.85  5010.88  5327.62

 Zero-point correction=                           0.032911 (Hartree/Particle)
 Thermal correction to Energy=                    0.036541
 Thermal correction to Enthalpy=                  0.037485
 Thermal correction to Gibbs Free Energy=         0.008164
 Sum of electronic and zero-point Energies=           -169.282986
 Sum of electronic and thermal Energies=              -169.279356
 Sum of electronic and thermal Enthalpies=            -169.278412
 Sum of electronic and thermal Free Energies=         -169.307734

                     E (Thermal)             CV                S
                      KCal/Mol        Cal/Mol-Kelvin    Cal/Mol-Kelvin
 Total                   22.930             10.306             61.713
 Electronic               0.000              0.000              1.377
 Translational            0.889              2.981             37.272
 Rotational               0.889              2.981             20.610
 Vibrational             21.153              4.344              2.454
 Vibration     1          0.700              1.653              1.359
 Vibration     2          0.887              1.180              0.583

 Optimization completed.
    -- Stationary point found.
 Normal termination of Gaussian 16 at Wed Jun 15 16:17:37 2022.
