 Gaussian 16, Revision B.01,

 ---------------------------------------
 # b3lyp/gen opt freq CPHF(Grid=OneStep)
 ---------------------------------------

 ------------------------
 carbamoyl, B3LYP/pcseg-2
 ------------------------
 Symbolic Z-matrix:
 Charge =  0 Multiplicity = 2

 SCF Done:  E(UB3LYP) =  -169.315897623     A.U. after   15 cycles
 Optimization completed.
    -- Stationary point found.
 Normal termination of Gaussian 16 at Wed Sep 27 14:56:45 2023.

 ------------------------------------------------------------------
 #N Geom=AllCheck Guess=TCheck SCRF=Check GenChk UB3LYP/ChkBas Freq
 ------------------------------------------------------------------

 Structure from the checkpoint file:  "nh2co.chk"
 ------------------------
 carbamoyl, B3LYP/pcseg-2
 ------------------------
 Charge =  0 Multiplicity = 2

 SCF Done:  E(UB3LYP) =  -169.315897623     A.U. after    1 cycles

  Exact polarizability:  31.810  -2.972  25.539  -0.000   0.000  16.940
 Approx polarizability:  48.969  -3.866  32.551  -0.000   0.000  22.026

                      1                      2                      3
                     A"                     A'                     A"
 Frequencies --    310.6699               531.7481               629.0481
 Red. masses --      1.2627                 3.0241                 1.4532
 Frc consts  --      0.0718                 0.5038                 0.3388
 IR Inten    --    210.5070                 5.2670                 0.4502

                      4                      5                      6
                     A'                     A'                     A'
 Frequencies --   1099.8177              1225.9414              1609.9212
 Red. masses --      1.7860                 3.7392                 1.1482
 Frc consts  --      1.2728                 3.3111                 1.7533
 IR Inten    --      0.5618                51.8412                57.9373

                      7                      8                      9
                     A'                     A'                     A'
 Frequencies --   1853.5580              3482.7396              3702.8826
 Red. masses --     12.1270                 1.0529                 1.0928
 Frc consts  --     24.5480                 7.5247                 8.8285
 IR Inten    --    348.4384                 2.8897                73.1534

 - Thermochemistry -
 -------------------
 Temperature   298.150 Kelvin.  Pressure   1.00000 Atm.
 Atom     1 has atomic number  6 and mass  12.00000

 Molecular mass:    44.01364 amu.
 Principal axes and moments of inertia in atomic units:
                           1         2         3
     Eigenvalues --    14.06718 160.91713 174.98431
           X            0.93335   0.35896   0.00000
           Y           -0.35896   0.93335   0.00000
           Z           -0.00000   0.00000   1.00000
 This molecule is an asymmetric top.
 Rotational symmetry number  1.
 Rotational temperatures (Kelvin)      6.15716     0.53825     0.49498
 Rotational constants (GHZ):         128.29442    11.21535    10.31373
 Zero-point vibrational energy      86408.2 (Joules/Mol)
                                   20.65206 (Kcal/Mol)
 Warning -- explicit consideration of   2 degrees of freedom as
           vibrations may cause significant error
 Vibrational temperatures:    446.98   765.07   905.06  1582.39  1763.86
          (Kelvin)           2316.32  2666.86  5010.89  5327.62

 Zero-point correction=                           0.032911 (Hartree/Particle)
 Thermal correction to Energy=                    0.036541
 Thermal correction to Enthalpy=                  0.037485
 Thermal correction to Gibbs Free Energy=         0.008164
 Sum of electronic and zero-point Energies=           -169.282986
 Sum of electronic and thermal Energies=              -169.279356
 Sum of electronic and thermal Enthalpies=            -169.278412
 Sum of electronic and thermal Free Energies=         -169.307734

                     E (Thermal)             CV                S
                      KCal/Mol        Cal/Mol-Kelvin    Cal/Mol-Kelvin
 Total                   22.930             10.306             61.713
 Electronic               0.000              0.000              1.377
 Translational            0.889              2.981             37.272
 Rotational               0.889              2.981             20.610
 Vibrational             21.153              4.344              2.454
 Vibration     1          0.700              1.653              1.359
 Vibration     2          0.887              1.180              0.583

 Optimization completed.
    -- Stationary point found.
 Normal termination of Gaussian 16 at Wed Sep 27 14:58:04 2023.
 Gaussian 16:  ES64L-G16RevB.01 20-Dec-2017

 ---------------------------------
 # rohf/gen geom=check guess=check
 ---------------------------------

 ---------------------------
 carbamoyl, ROHF/cc-pVTZ-F12
 ---------------------------
 Structure from the checkpoint file:  "nh2co.chk"
 Charge =  0 Multiplicity = 2

                         Standard orientation:
 ---------------------------------------------------------------------
 Center     Atomic      Atomic             Coordinates (Angstroms)
 Number     Number       Type             X           Y           Z
 ---------------------------------------------------------------------
      1          6           0        0.000000    0.436929   -0.000000
      2          7           0        0.969684   -0.484342    0.000000
      3          8           0       -1.184048    0.305635   -0.000000
      4          1           0        0.753112   -1.473891    0.000000
      5          1           0        1.931487   -0.202368   -0.000000
 ---------------------------------------------------------------------

 SCF Done:  E(ROHF) =  -168.383910240     A.U. after   17 cycles

 The electronic state is 2-A'.
 Alpha  occ. eigenvalues --  -20.55955 -15.61194 -11.35168  -1.40786  -1.23530
 Alpha  occ. eigenvalues --   -0.81607  -0.74121  -0.66389  -0.59230  -0.52953
 Alpha  occ. eigenvalues --   -0.44719  -0.08968
 Alpha virt. eigenvalues --    0.04258   0.06978   0.07495   0.08313   0.10953
 Alpha virt. eigenvalues --    0.11570   0.13310   0.18049   0.18408   0.19963
 Alpha virt. eigenvalues --    0.21612   0.22317   0.24198   0.26776   0.29959

 Mulliken charges and spin densities:
               1          2
     1  C    0.541422   0.818785
     2  N   -0.619944  -0.040856
     3  O   -0.543262   0.185080
     4  H    0.321163   0.029684
     5  H    0.300620   0.007307
 Sum of Mulliken charges =  -0.00000   1.00000

 Dipole moment (field-independent basis, Debye):
    X=              3.7932    Y=             -1.5565    Z=              0.0000  Tot=              4.1002
 Quadrupole moment (field-independent basis, Debye-Ang):
   XX=            -17.0802   YY=            -15.4811   ZZ=            -18.1295
   XY=             -0.0971   XZ=              0.0000   YZ=             -0.0000

 Normal termination of Gaussian 16 at Wed Sep 27 14:58:18 2023.
