 Gaussian 16, Revision B.01,
 Gaussian 16:  ES64L-G16RevB.01 20-Dec-2017

 --------------------
 # b3lyp/gen opt freq
 --------------------

 ------------------------
 cyanamide, B3LYP/pcseg-2
 ------------------------
 Symbolic Z-matrix:
 Charge =  0 Multiplicity = 1

 SCF Done:  E(RB3LYP) =  -148.851298821     A.U. after   12 cycles
 SCF Done:  E(RB3LYP) =  -148.851315313     A.U. after    8 cycles
 SCF Done:  E(RB3LYP) =  -148.851318048     A.U. after    8 cycles
 SCF Done:  E(RB3LYP) =  -148.851319148     A.U. after    8 cycles
 Optimization completed.
    -- Stationary point found.
 Normal termination of Gaussian 16 at Fri Jun 17 20:26:58 2022.

 ------------------------------------------------------------------
 #N Geom=AllCheck Guess=TCheck SCRF=Check GenChk RB3LYP/ChkBas Freq
 ------------------------------------------------------------------

 Structure from the checkpoint file:  "/wrk/irikura/Gau-24664.chk"
 ------------------------
 cyanamide, B3LYP/pcseg-2
 ------------------------
 Charge =  0 Multiplicity = 1

                         Standard orientation:
 ---------------------------------------------------------------------
 Center     Atomic      Atomic             Coordinates (Angstroms)
 Number     Number       Type             X           Y           Z
 ---------------------------------------------------------------------
      1          6           0       -0.000000    0.221211    0.000000
      2          7           0       -0.015899    1.375447    0.000000
      3          7           0        0.079418   -1.115207   -0.000000
      4          1           0       -0.222317   -1.574472    0.844994
      5          1           0       -0.222317   -1.574472   -0.844994
 ---------------------------------------------------------------------

 SCF Done:  E(RB3LYP) =  -148.851319148     A.U. after    1 cycles

 The electronic state is 1-A'.
 Alpha  occ. eigenvalues --  -14.38385 -14.30693 -10.23935  -0.97690  -0.89360
 Alpha  occ. eigenvalues --   -0.61471  -0.57445  -0.41525  -0.36740  -0.34361
 Alpha  occ. eigenvalues --   -0.28727
 Alpha virt. eigenvalues --   -0.02222   0.01422   0.05403   0.06933   0.10147
 Alpha virt. eigenvalues --    0.16191   0.17644   0.20001   0.21328   0.27077
 Alpha virt. eigenvalues --    0.29039   0.31254   0.32793   0.36333   0.37186

 Mulliken charges:
               1
     1  C    0.169014
     2  N   -0.212385
     3  N   -0.296020
     4  H    0.169696
     5  H    0.169696
 Sum of Mulliken charges =   0.00000

 Dipole moment (field-independent basis, Debye):
    X=             -0.8941    Y=             -4.5807    Z=             -0.0000  Tot=              4.6671
 Quadrupole moment (field-independent basis, Debye-Ang):
   XX=            -18.7041   YY=            -18.9005   ZZ=            -15.2302
   XY=              1.7670   XZ=              0.0000   YZ=              0.0000

  Exact polarizability:  16.990  -0.142  36.996  -0.000  -0.000  18.078
 Approx polarizability:  22.247  -0.630  60.709  -0.000   0.000  24.708

                      1                      2                      3
                     A"                     A'                     A'
 Frequencies --    412.3350               480.5881               549.7285
 Red. masses --      3.9596                 1.5387                 3.8539
 Frc consts  --      0.3966                 0.2094                 0.6862
 IR Inten    --      0.0778               133.9987               109.7021

                      4                      5                      6
                     A'                     A"                     A'
 Frequencies --   1098.1270              1190.5539              1632.0393
 Red. masses --      5.9769                 1.3293                 1.1105
 Frc consts  --      4.2465                 1.1102                 1.7427
 IR Inten    --     10.0754                 0.2434                44.5224

                      7                      8                      9
                     A'                     A'                     A"
 Frequencies --   2350.9473              3555.6752              3649.0808
 Red. masses --     12.2168                 1.0456                 1.1001
 Frc consts  --     39.7827                 7.7883                 8.6307
 IR Inten    --    118.3173                44.4195                68.2276

 - Thermochemistry -
 -------------------
 Temperature   298.150 Kelvin.  Pressure   1.00000 Atm.
 Atom     1 has atomic number  6 and mass  12.00000

 Molecular mass:    42.02180 amu.
 Principal axes and moments of inertia in atomic units:
                           1         2         3
     Eigenvalues --     5.75120 176.57333 181.10110
           X           -0.01780   0.00000   0.99984
           Y            0.99984   0.00000   0.01780
           Z           -0.00000   1.00000  -0.00000
 This molecule is an asymmetric top.
 Rotational symmetry number  1.
 Rotational temperatures (Kelvin)     15.06015     0.49053     0.47826
 Rotational constants (GHZ):         313.80266    10.22092     9.96538
 Zero-point vibrational energy      89235.9 (Joules/Mol)
                                   21.32789 (Kcal/Mol)
 Warning -- explicit consideration of   3 degrees of freedom as
           vibrations may cause significant error
 Vibrational temperatures:    593.26   691.46   790.94  1579.96  1712.94
          (Kelvin)           2348.14  3382.49  5115.82  5250.21

 Zero-point correction=                           0.033988 (Hartree/Particle)
 Thermal correction to Energy=                    0.037592
 Thermal correction to Enthalpy=                  0.038537
 Thermal correction to Gibbs Free Energy=         0.010378
 Sum of electronic and zero-point Energies=           -148.817331
 Sum of electronic and thermal Energies=              -148.813727
 Sum of electronic and thermal Enthalpies=            -148.812783
 Sum of electronic and thermal Free Energies=         -148.840942

                     E (Thermal)             CV                S
                      KCal/Mol        Cal/Mol-Kelvin    Cal/Mol-Kelvin
 Total                   23.590             10.381             59.266
 Electronic               0.000              0.000              0.000
 Translational            0.889              2.981             37.134
 Rotational               0.889              2.981             19.848
 Vibrational             21.812              4.419              2.284
 Vibration     1          0.776              1.443              0.918
 Vibration     2          0.837              1.293              0.708
 Vibration     3          0.905              1.140              0.545

 Optimization completed.
    -- Stationary point found.
 Normal termination of Gaussian 16 at Fri Jun 17 20:27:13 2022.
