 Gaussian 16, Revision B.01,

 ---------------------------------------
 # b3lyp/gen opt freq CPHF(Grid=OneStep)
 ---------------------------------------

 --------------------------
 nitrosamine, B3LYP/pcseg-2
 --------------------------
 Symbolic Z-matrix:
 Charge =  0 Multiplicity = 1

 SCF Done:  E(RB3LYP) =  -185.932873309     A.U. after   13 cycles
 Optimization completed.
    -- Stationary point found.
 Normal termination of Gaussian 16 at Sat Sep 30 06:43:51 2023.

 ------------------------------------------------------------------
 #N Geom=AllCheck Guess=TCheck SCRF=Check GenChk RB3LYP/ChkBas Freq
 ------------------------------------------------------------------

 Structure from the checkpoint file:  "nh2no.chk"
 --------------------------
 nitrosamine, B3LYP/pcseg-2
 --------------------------
 Charge =  0 Multiplicity = 1

 SCF Done:  E(RB3LYP) =  -185.932873309     A.U. after    1 cycles

  Exact polarizability:  32.778  -3.414  22.645  -0.000   0.000  14.253
 Approx polarizability:  56.422  -6.350  31.081  -0.000   0.000  19.425

                      1                      2                      3
                     A"                     A'                     A"
 Frequencies --    223.2007               631.9385               714.3826
 Red. masses --      1.2328                 2.5067                 1.2821
 Frc consts  --      0.0362                 0.5898                 0.3855
 IR Inten    --    208.1760                 0.6736                 2.4745

                      4                      5                      6
                     A'                     A'                     A'
 Frequencies --   1097.0725              1220.7222              1572.2758
 Red. masses --      3.7094                 2.1625                 2.1093
 Frc consts  --      2.6304                 1.8986                 3.0722
 IR Inten    --    104.1495               116.3264               250.0597

                      7                      8                      9
                     A'                     A'                     A'
 Frequencies --   1601.2882              3459.8808              3696.1826
 Red. masses --      2.0189                 1.0459                 1.1023
 Frc consts  --      3.0501                 7.3764                 8.8727
 IR Inten    --     17.5439                10.0538                64.1671

 - Thermochemistry -
 -------------------
 Temperature   298.150 Kelvin.  Pressure   1.00000 Atm.
 Atom     1 has atomic number  8 and mass  15.99491

 Molecular mass:    46.01671 amu.
 Principal axes and moments of inertia in atomic units:
                           1         2         3
     Eigenvalues --    21.65990 139.68318 161.34308
           X            0.96447   0.26418   0.00000
           Y           -0.26418   0.96447   0.00000
           Z           -0.00000   0.00000   1.00000
 This molecule is an asymmetric top.
 Rotational symmetry number  1.
 Rotational temperatures (Kelvin)      3.99881     0.62007     0.53683
 Rotational constants (GHZ):          83.32176    12.92025    11.18574
 Zero-point vibrational energy      85036.2 (Joules/Mol)
                                   20.32414 (Kcal/Mol)
 Warning -- explicit consideration of   1 degrees of freedom as
           vibrations may cause significant error
 Vibrational temperatures:    321.14   909.22  1027.84  1578.44  1756.35
          (Kelvin)           2262.15  2303.90  4978.00  5317.98

 Zero-point correction=                           0.032389 (Hartree/Particle)
 Thermal correction to Energy=                    0.036044
 Thermal correction to Enthalpy=                  0.036988
 Thermal correction to Gibbs Free Energy=         0.008024
 Sum of electronic and zero-point Energies=           -185.900485
 Sum of electronic and thermal Energies=              -185.896829
 Sum of electronic and thermal Enthalpies=            -185.895885
 Sum of electronic and thermal Free Energies=         -185.924849

                     E (Thermal)             CV                S
                      KCal/Mol        Cal/Mol-Kelvin    Cal/Mol-Kelvin
 Total                   22.618             10.119             60.960
 Electronic               0.000              0.000              0.000
 Translational            0.889              2.981             37.404
 Rotational               0.889              2.981             20.817
 Vibrational             20.841              4.157              2.738
 Vibration     1          0.649              1.806              1.933

 Optimization completed.
    -- Stationary point found.
 Normal termination of Gaussian 16 at Sat Sep 30 06:44:38 2023.
 Gaussian 16:  ES64L-G16RevB.01 20-Dec-2017

 ---------------------------------
 # rohf/gen geom=check guess=check
 ---------------------------------

 -----------------------------
 nitrosamine, ROHF/cc-pVTZ-F12
 -----------------------------
 Structure from the checkpoint file:  "nh2no.chk"
 Charge =  0 Multiplicity = 1

                         Standard orientation:
 ---------------------------------------------------------------------
 Center     Atomic      Atomic             Coordinates (Angstroms)
 Number     Number       Type             X           Y           Z
 ---------------------------------------------------------------------
      1          8           0       -1.136949    0.101604    0.000000
      2          7           0        0.000000    0.520495    0.000000
      3          7           0        0.934292   -0.420584   -0.000000
      4          1           0        0.664858   -1.398904   -0.000000
      5          1           0        1.890692   -0.113307   -0.000000
 ---------------------------------------------------------------------

 SCF Done:  E(ROHF) =  -184.916878802     A.U. after   13 cycles

 The electronic state is 1-A'.
 Alpha  occ. eigenvalues --  -20.59041 -15.73788 -15.63237  -1.52520  -1.26178
 Alpha  occ. eigenvalues --   -0.92775  -0.77676  -0.72393  -0.63755  -0.60729
 Alpha  occ. eigenvalues --   -0.43866  -0.42551
 Alpha virt. eigenvalues --    0.05371   0.07329   0.09643   0.09831   0.11598
 Alpha virt. eigenvalues --    0.12223   0.14916   0.15757   0.17821   0.20124
 Alpha virt. eigenvalues --    0.21005   0.22014   0.25300   0.27134   0.34557

 Mulliken charges and spin densities:
               1          2
     1  O   -0.424337   0.000000
     2  N    0.222427   0.000000
     3  N   -0.428837   0.000000
     4  H    0.310299   0.000000
     5  H    0.320448   0.000000
 Sum of Mulliken charges =  -0.00000   0.00000

 Dipole moment (field-independent basis, Debye):
    X=              3.4739    Y=             -1.6260    Z=             -0.0000  Tot=              3.8356
 Quadrupole moment (field-independent basis, Debye-Ang):
   XX=            -16.0287   YY=            -16.1523   ZZ=            -17.8749
   XY=             -0.6313   XZ=              0.0000   YZ=              0.0000

 Normal termination of Gaussian 16 at Sat Sep 30 06:44:50 2023.
