 Gaussian 16, Revision B.01,
 Gaussian 16:  ES64L-G16RevB.01 20-Dec-2017

 --------------------
 # b3lyp/gen opt freq
 --------------------

 -------------------------
 hydrazinyl, B3LYP/pcseg-2
 -------------------------
 Symbolic Z-matrix:
 Charge =  0 Multiplicity = 2

 SCF Done:  E(UB3LYP) =  -111.284076640     A.U. after   14 cycles
 SCF Done:  E(UB3LYP) =  -111.284189245     A.U. after   11 cycles
 SCF Done:  E(UB3LYP) =  -111.284232669     A.U. after   11 cycles
 SCF Done:  E(UB3LYP) =  -111.284238746     A.U. after   10 cycles
 Optimization completed.
    -- Stationary point found.
 Normal termination of Gaussian 16 at Thu Jun 16 10:14:30 2022.

 ------------------------------------------------------------------
 #N Geom=AllCheck Guess=TCheck SCRF=Check GenChk UB3LYP/ChkBas Freq
 ------------------------------------------------------------------

 Structure from the checkpoint file:  "/wrk/irikura/Gau-1349.chk"
 -------------------------
 hydrazinyl, B3LYP/pcseg-2
 -------------------------
 Charge =  0 Multiplicity = 2

                         Standard orientation:
 ---------------------------------------------------------------------
 Center     Atomic      Atomic             Coordinates (Angstroms)
 Number     Number       Type             X           Y           Z
 ---------------------------------------------------------------------
      1          7           0        0.594866    0.024450   -0.069904
      2          7           0       -0.738248   -0.150807    0.023006
      3          1           0        1.022884    0.900447    0.199935
      4          1           0        1.132663   -0.796909    0.154652
      5          1           0       -1.151876    0.780957   -0.026298
 ---------------------------------------------------------------------

 SCF Done:  E(UB3LYP) =  -111.284238746     A.U. after    1 cycles

 The electronic state is 2-A.
 Alpha  occ. eigenvalues --  -14.36703 -14.32735  -0.98865  -0.74437  -0.55902
 Alpha  occ. eigenvalues --   -0.48087  -0.39676  -0.30085  -0.19375
 Alpha virt. eigenvalues --    0.00100   0.03632   0.06473   0.19794   0.22501
 Alpha virt. eigenvalues --    0.25724   0.28388   0.30168   0.32702   0.32980
 Alpha virt. eigenvalues --    0.34599   0.38452   0.39622   0.45403   0.52970

  Beta  occ. eigenvalues --  -14.36016 -14.31121  -0.96808  -0.71644  -0.55268
  Beta  occ. eigenvalues --   -0.47045  -0.33629  -0.28177
  Beta virt. eigenvalues --   -0.04493   0.00352   0.03899   0.06683   0.20522
  Beta virt. eigenvalues --    0.22880   0.27064   0.28806   0.30425   0.33318
  Beta virt. eigenvalues --    0.35484   0.36100   0.38857   0.40119   0.46383

 Mulliken charges and spin densities:
               1          2
     1  N   -0.125997   0.257671
     2  N   -0.255546   0.755747
     3  H    0.127048   0.002675
     4  H    0.157992  -0.001927
     5  H    0.096501  -0.014165
 Sum of Mulliken charges =  -0.00000   1.00000

 Dipole moment (field-independent basis, Debye):
    X=              2.0029    Y=              1.6358    Z=              0.6263  Tot=              2.6608
 Quadrupole moment (field-independent basis, Debye-Ang):
   XX=            -11.9062   YY=            -11.0737   ZZ=            -14.4795
   XY=             -2.2751   XZ=              0.9514   YZ=              0.1044

  Exact polarizability:  25.756   0.210  17.922  -0.143  -0.062  14.297
 Approx polarizability:  33.226   0.281  23.529  -0.510  -0.140  17.741

                      1                      2                      3
                      A                      A                      A
 Frequencies --    546.1664               697.0493              1135.9498
 Red. masses --      1.2945                 1.0694                 1.0846
 Frc consts  --      0.2275                 0.3061                 0.8246
 IR Inten    --    129.5084               122.1098                21.4177

                      4                      5                      6
                      A                      A                      A
 Frequencies --   1234.4544              1480.2717              1658.8233
 Red. masses --      6.3139                 1.2635                 1.0954
 Frc consts  --      5.6689                 1.6312                 1.7760
 IR Inten    --      4.2711                21.2446                15.4610

                      7                      8                      9
                      A                      A                      A
 Frequencies --   3423.2496              3484.3603              3631.4101
 Red. masses --      1.0746                 1.0470                 1.0995
 Frc consts  --      7.4192                 7.4891                 8.5424
 IR Inten    --      6.0704                 0.5073                20.3100

 - Thermochemistry -
 -------------------
 Temperature   298.150 Kelvin.  Pressure   1.00000 Atm.
 Atom     1 has atomic number  7 and mass  14.00307

 Molecular mass:    31.02962 amu.
 Principal axes and moments of inertia in atomic units:
                           1         2         3
     Eigenvalues --     8.74550  58.66716  66.50957
           X            0.99782  -0.06097   0.02534
           Y            0.06072   0.99810   0.01056
           Z           -0.02594  -0.00900   0.99962
 This molecule is an asymmetric top.
 Rotational symmetry number  1.
 Rotational temperatures (Kelvin)      9.90382     1.47636     1.30228
 Rotational constants (GHZ):         206.36221    30.76238    27.13506
 Zero-point vibrational energy     103427.5 (Joules/Mol)
                                   24.71978 (Kcal/Mol)
 Warning -- explicit consideration of   1 degrees of freedom as
           vibrations may cause significant error
 Vibrational temperatures:    785.81  1002.90  1634.38  1776.10  2129.78
          (Kelvin)           2386.68  4925.29  5013.22  5224.79

 Zero-point correction=                           0.039393 (Hartree/Particle)
 Thermal correction to Energy=                    0.042576
 Thermal correction to Enthalpy=                  0.043520
 Thermal correction to Gibbs Free Energy=         0.016556
 Sum of electronic and zero-point Energies=           -111.244845
 Sum of electronic and thermal Energies=              -111.241663
 Sum of electronic and thermal Enthalpies=            -111.240718
 Sum of electronic and thermal Free Energies=         -111.267683

                     E (Thermal)             CV                S
                      KCal/Mol        Cal/Mol-Kelvin    Cal/Mol-Kelvin
 Total                   26.717              8.501             56.751
 Electronic               0.000              0.000              1.377
 Translational            0.889              2.981             36.230
 Rotational               0.889              2.981             18.174
 Vibrational             24.939              2.540              0.970
 Vibration     1          0.901              1.148              0.552

 Optimization completed.
    -- Stationary point found.
 Normal termination of Gaussian 16 at Thu Jun 16 10:14:49 2022.
