 Gaussian 16, Revision B.01,

 ---------------------------------------
 # b3lyp/gen opt freq CPHF(Grid=OneStep)
 ---------------------------------------

 -------------------------
 hydrazinyl, B3LYP/pcseg-2
 -------------------------
 Symbolic Z-matrix:
 Charge =  0 Multiplicity = 2

 SCF Done:  E(UB3LYP) =  -111.284238746     A.U. after   14 cycles
 Optimization completed.
    -- Stationary point found.
 Normal termination of Gaussian 16 at Sat Sep 30 08:56:41 2023.

 ------------------------------------------------------------------
 #N Geom=AllCheck Guess=TCheck SCRF=Check GenChk UB3LYP/ChkBas Freq
 ------------------------------------------------------------------

 Structure from the checkpoint file:  "nh2nh.chk"
 -------------------------
 hydrazinyl, B3LYP/pcseg-2
 -------------------------
 Charge =  0 Multiplicity = 2

 SCF Done:  E(UB3LYP) =  -111.284238746     A.U. after    1 cycles

  Exact polarizability:  25.756   0.210  17.922  -0.143  -0.062  14.297
 Approx polarizability:  33.226   0.281  23.529  -0.510  -0.140  17.741

                      1                      2                      3
                      A                      A                      A
 Frequencies --    546.1665               697.0445              1135.9477
 Red. masses --      1.2945                 1.0694                 1.0846
 Frc consts  --      0.2275                 0.3061                 0.8246
 IR Inten    --    129.5091               122.1108                21.4164

                      4                      5                      6
                      A                      A                      A
 Frequencies --   1234.4497              1480.2706              1658.8227
 Red. masses --      6.3138                 1.2635                 1.0954
 Frc consts  --      5.6688                 1.6312                 1.7760
 IR Inten    --      4.2717                21.2434                15.4610

                      7                      8                      9
                      A                      A                      A
 Frequencies --   3423.2547              3484.3589              3631.4139
 Red. masses --      1.0746                 1.0470                 1.0995
 Frc consts  --      7.4193                 7.4891                 8.5424
 IR Inten    --      6.0708                 0.5075                20.3106

 - Thermochemistry -
 -------------------
 Temperature   298.150 Kelvin.  Pressure   1.00000 Atm.
 Atom     1 has atomic number  7 and mass  14.00307

 Molecular mass:    31.02962 amu.
 Principal axes and moments of inertia in atomic units:
                           1         2         3
     Eigenvalues --     8.74550  58.66719  66.50960
           X            0.99782  -0.06097   0.02534
           Y            0.06072   0.99810   0.01056
           Z           -0.02594  -0.00900   0.99962
 This molecule is an asymmetric top.
 Rotational symmetry number  1.
 Rotational temperatures (Kelvin)      9.90382     1.47636     1.30228
 Rotational constants (GHZ):         206.36221    30.76236    27.13505
 Zero-point vibrational energy     103427.5 (Joules/Mol)
                                   24.71977 (Kcal/Mol)
 Warning -- explicit consideration of   1 degrees of freedom as
           vibrations may cause significant error
 Vibrational temperatures:    785.81  1002.89  1634.38  1776.10  2129.78
          (Kelvin)           2386.68  4925.30  5013.22  5224.79

 Zero-point correction=                           0.039393 (Hartree/Particle)
 Thermal correction to Energy=                    0.042576
 Thermal correction to Enthalpy=                  0.043520
 Thermal correction to Gibbs Free Energy=         0.016556
 Sum of electronic and zero-point Energies=           -111.244845
 Sum of electronic and thermal Energies=              -111.241663
 Sum of electronic and thermal Enthalpies=            -111.240718
 Sum of electronic and thermal Free Energies=         -111.267683

                     E (Thermal)             CV                S
                      KCal/Mol        Cal/Mol-Kelvin    Cal/Mol-Kelvin
 Total                   26.717              8.501             56.751
 Electronic               0.000              0.000              1.377
 Translational            0.889              2.981             36.230
 Rotational               0.889              2.981             18.174
 Vibrational             24.939              2.540              0.970
 Vibration     1          0.901              1.148              0.552

 Optimization completed.
    -- Stationary point found.
 Normal termination of Gaussian 16 at Sat Sep 30 08:57:46 2023.
 Gaussian 16:  ES64L-G16RevB.01 20-Dec-2017

 ---------------------------------
 # rohf/gen geom=check guess=check
 ---------------------------------

 ----------------------------
 hydrazinyl, ROHF/cc-pVTZ-F12
 ----------------------------
 Structure from the checkpoint file:  "nh2nh.chk"
 Charge =  0 Multiplicity = 2

                         Standard orientation:
 ---------------------------------------------------------------------
 Center     Atomic      Atomic             Coordinates (Angstroms)
 Number     Number       Type             X           Y           Z
 ---------------------------------------------------------------------
      1          7           0        0.594866    0.024450   -0.069904
      2          7           0       -0.738248   -0.150807    0.023006
      3          1           0        1.022884    0.900447    0.199935
      4          1           0        1.132663   -0.796909    0.154652
      5          1           0       -1.151876    0.780957   -0.026298
 ---------------------------------------------------------------------

 SCF Done:  E(ROHF) =  -110.623318607     A.U. after   18 cycles

 The electronic state is 2-A.
 Alpha  occ. eigenvalues --  -15.59050 -15.57640  -1.27626  -0.96381  -0.72537
 Alpha  occ. eigenvalues --   -0.63212  -0.48911  -0.45116  -0.06399
 Alpha virt. eigenvalues --    0.06728   0.08331   0.09507   0.11648   0.13397
 Alpha virt. eigenvalues --    0.15100   0.15322   0.21772   0.24054   0.24877
 Alpha virt. eigenvalues --    0.28609   0.40556   0.42734   0.45297   0.47947

 Mulliken charges and spin densities:
               1          2
     1  N   -0.464821   0.135427
     2  N   -0.304399   0.828152
     3  H    0.252651   0.009576
     4  H    0.288805   0.006738
     5  H    0.227763   0.020107
 Sum of Mulliken charges =  -0.00000   1.00000

 Dipole moment (field-independent basis, Debye):
    X=              1.4827    Y=              1.6169    Z=              0.7199  Tot=              2.3089
 Quadrupole moment (field-independent basis, Debye-Ang):
   XX=            -11.7079   YY=            -10.8530   ZZ=            -14.4135
   XY=             -2.2599   XZ=              1.0577   YZ=              0.1298

 Normal termination of Gaussian 16 at Sat Sep 30 08:57:55 2023.
