 Gaussian 16, Revision B.01,
 Gaussian 16:  ES64L-G16RevB.01 20-Dec-2017

 --------------------
 # opt freq b3lyp/gen
 --------------------

 --------------------------
 nitrosamine, B3LYP/pcseg-2
 --------------------------
 Symbolic Z-matrix:
 Charge =  0 Multiplicity = 1

 SCF Done:  E(RB3LYP) =  -185.932826808     A.U. after   13 cycles
 SCF Done:  E(RB3LYP) =  -185.932869574     A.U. after    8 cycles
 SCF Done:  E(RB3LYP) =  -185.932871710     A.U. after    8 cycles
 SCF Done:  E(RB3LYP) =  -185.932873309     A.U. after    8 cycles
 Optimization completed.
    -- Stationary point found.
 Normal termination of Gaussian 16 at Thu Jun 16 17:20:22 2022.

 ------------------------------------------------------------------
 #N Geom=AllCheck Guess=TCheck SCRF=Check GenChk RB3LYP/ChkBas Freq
 ------------------------------------------------------------------

 Structure from the checkpoint file:  "/wrk/irikura/Gau-16318.chk"
 --------------------------
 nitrosamine, B3LYP/pcseg-2
 --------------------------
 Charge =  0 Multiplicity = 1

                         Standard orientation:
 ---------------------------------------------------------------------
 Center     Atomic      Atomic             Coordinates (Angstroms)
 Number     Number       Type             X           Y           Z
 ---------------------------------------------------------------------
      1          8           0       -1.136949    0.101604   -0.000000
      2          7           0       -0.000000    0.520495   -0.000000
      3          7           0        0.934292   -0.420584    0.000000
      4          1           0        0.664858   -1.398904    0.000000
      5          1           0        1.890692   -0.113307    0.000000
 ---------------------------------------------------------------------

 SCF Done:  E(RB3LYP) =  -185.932873309     A.U. after    1 cycles

 The electronic state is 1-A'.
 Alpha  occ. eigenvalues --  -19.15481 -14.45958 -14.39072  -1.17284  -0.96037
 Alpha  occ. eigenvalues --   -0.69632  -0.58983  -0.52522  -0.48112  -0.41656
 Alpha  occ. eigenvalues --   -0.31318  -0.25212
 Alpha virt. eigenvalues --   -0.05927  -0.00105   0.04286   0.13735   0.16527
 Alpha virt. eigenvalues --    0.22544   0.23426   0.28601   0.31132   0.31837
 Alpha virt. eigenvalues --    0.34074   0.35146   0.40513   0.40612   0.42120

 Mulliken charges:
               1
     1  O   -0.338891
     2  N    0.117711
     3  N   -0.083206
     4  H    0.140624
     5  H    0.163763
 Sum of Mulliken charges =   0.00000

 Dipole moment (field-independent basis, Debye):
    X=              3.3561    Y=             -1.7243    Z=              0.0000  Tot=              3.7731
 Quadrupole moment (field-independent basis, Debye-Ang):
   XX=            -16.0073   YY=            -16.7363   ZZ=            -17.8404
   XY=             -0.6992   XZ=             -0.0000   YZ=             -0.0000

  Exact polarizability:  32.778  -3.414  22.645  -0.000   0.000  14.253
 Approx polarizability:  56.422  -6.350  31.081   0.000  -0.000  19.425

                      1                      2                      3
                     A"                     A'                     A"
 Frequencies --    223.1858               631.9398               714.3840
 Red. masses --      1.2328                 2.5067                 1.2821
 Frc consts  --      0.0362                 0.5898                 0.3855
 IR Inten    --    208.1760                 0.6737                 2.4743

                      4                      5                      6
                     A'                     A'                     A'
 Frequencies --   1097.0712              1220.7175              1572.2701
 Red. masses --      3.7095                 2.1625                 2.1097
 Frc consts  --      2.6305                 1.8986                 3.0728
 IR Inten    --    104.1507               116.3264               250.0736

                      7                      8                      9
                     A'                     A'                     A'
 Frequencies --   1601.2791              3459.8834              3696.1859
 Red. masses --      2.0186                 1.0459                 1.1023
 Frc consts  --      3.0495                 7.3764                 8.8727
 IR Inten    --     17.5318                10.0553                64.1647

 - Thermochemistry -
 -------------------
 Temperature   298.150 Kelvin.  Pressure   1.00000 Atm.
 Atom     1 has atomic number  8 and mass  15.99491

 Molecular mass:    46.01671 amu.
 Principal axes and moments of inertia in atomic units:
                           1         2         3
     Eigenvalues --    21.65991 139.68327 161.34318
           X            0.96447   0.26418   0.00000
           Y           -0.26418   0.96447   0.00000
           Z            0.00000  -0.00000   1.00000
 This molecule is an asymmetric top.
 Rotational symmetry number  1.
 Rotational temperatures (Kelvin)      3.99881     0.62007     0.53683
 Rotational constants (GHZ):          83.32173    12.92024    11.18573
 Zero-point vibrational energy      85036.0 (Joules/Mol)
                                   20.32410 (Kcal/Mol)
 Warning -- explicit consideration of   1 degrees of freedom as
           vibrations may cause significant error
 Vibrational temperatures:    321.11   909.22  1027.84  1578.44  1756.34
          (Kelvin)           2262.15  2303.88  4978.00  5317.99

 Zero-point correction=                           0.032389 (Hartree/Particle)
 Thermal correction to Energy=                    0.036044
 Thermal correction to Enthalpy=                  0.036988
 Thermal correction to Gibbs Free Energy=         0.008024
 Sum of electronic and zero-point Energies=           -185.900485
 Sum of electronic and thermal Energies=              -185.896829
 Sum of electronic and thermal Enthalpies=            -185.895885
 Sum of electronic and thermal Free Energies=         -185.924849

                     E (Thermal)             CV                S
                      KCal/Mol        Cal/Mol-Kelvin    Cal/Mol-Kelvin
 Total                   22.618             10.119             60.960
 Electronic               0.000              0.000              0.000
 Translational            0.889              2.981             37.404
 Rotational               0.889              2.981             20.817
 Vibrational             20.841              4.157              2.738
 Vibration     1          0.649              1.806              1.933

 Optimization completed.
    -- Stationary point found.
 Normal termination of Gaussian 16 at Thu Jun 16 17:20:37 2022.
