 Gaussian 16, Revision B.01,
 Gaussian 16:  ES64L-G16RevB.01 20-Dec-2017

 --------------------
 # b3lyp/gen opt freq
 --------------------

 -----------------------
 aminoxyl, B3LYP/pcseg-2
 -----------------------
 Symbolic Z-matrix:
 Charge =  0 Multiplicity = 2

 SCF Done:  E(UB3LYP) =  -131.141995407     A.U. after   14 cycles
 SCF Done:  E(UB3LYP) =  -131.151388610     A.U. after   13 cycles
 SCF Done:  E(UB3LYP) =  -131.152412280     A.U. after   13 cycles
 SCF Done:  E(UB3LYP) =  -131.152637099     A.U. after   12 cycles
 SCF Done:  E(UB3LYP) =  -131.152682307     A.U. after   11 cycles
 SCF Done:  E(UB3LYP) =  -131.152689806     A.U. after   10 cycles
 SCF Done:  E(UB3LYP) =  -131.152690871     A.U. after    9 cycles
 SCF Done:  E(UB3LYP) =  -131.152690978     A.U. after    8 cycles
 Optimization completed.
    -- Stationary point found.
 Normal termination of Gaussian 16 at Thu Jun 16 18:24:28 2022.

 ------------------------------------------------------------------
 #N Geom=AllCheck Guess=TCheck SCRF=Check GenChk UB3LYP/ChkBas Freq
 ------------------------------------------------------------------

 Structure from the checkpoint file:  "/wrk/irikura/Gau-25646.chk"
 -----------------------
 aminoxyl, B3LYP/pcseg-2
 -----------------------
 Charge =  0 Multiplicity = 2

                         Standard orientation:
 ---------------------------------------------------------------------
 Center     Atomic      Atomic             Coordinates (Angstroms)
 Number     Number       Type             X           Y           Z
 ---------------------------------------------------------------------
      1          7           0       -0.013685    0.540901    0.000000
      2          8           0       -0.013685   -0.733529   -0.000000
      3          1           0        0.102635    1.040963    0.874711
      4          1           0        0.102635    1.040963   -0.874711
 ---------------------------------------------------------------------

 SCF Done:  E(UB3LYP) =  -131.152690978     A.U. after    1 cycles

 The electronic state is 2-A'.
 Alpha  occ. eigenvalues --  -19.15152 -14.41549  -1.10938  -0.79682  -0.57889
 Alpha  occ. eigenvalues --   -0.49033  -0.45560  -0.29015  -0.23326
 Alpha virt. eigenvalues --   -0.00329   0.04829   0.11615   0.22493   0.24085
 Alpha virt. eigenvalues --    0.32131   0.33837   0.35712   0.37726   0.39088
 Alpha virt. eigenvalues --    0.39740   0.43662   0.66971   0.71042   0.90176

  Beta  occ. eigenvalues --  -19.13368 -14.40566  -1.08104  -0.76589  -0.57184
  Beta  occ. eigenvalues --   -0.46989  -0.37771  -0.27505
  Beta virt. eigenvalues --   -0.07347   0.00003   0.04931   0.12267   0.23114
  Beta virt. eigenvalues --    0.25760   0.32473   0.34632   0.36557   0.37962
  Beta virt. eigenvalues --    0.39972   0.42696   0.43924   0.67852   0.72011

 Mulliken charges and spin densities:
               1          2
     1  N    0.034754   0.417626
     2  O   -0.340049   0.600720
     3  H    0.152648  -0.009173
     4  H    0.152648  -0.009173
 Sum of Mulliken charges =   0.00000   1.00000

 Dipole moment (field-independent basis, Debye):
    X=              0.3599    Y=              3.0957    Z=              0.0000  Tot=              3.1165
 Quadrupole moment (field-independent basis, Debye-Ang):
   XX=            -12.6433   YY=            -11.3606   ZZ=            -10.1946
   XY=              0.3467   XZ=             -0.0000   YZ=             -0.0000

  Exact polarizability:  10.252   0.254  21.405   0.000   0.000  12.419
 Approx polarizability:  12.543   0.229  29.746  -0.000  -0.000  15.399

                      1                      2                      3
                     A'                     A"                     A'
 Frequencies --    262.5670              1267.7924              1377.3349
 Red. masses --      1.2839                 1.2453                 8.2903
 Frc consts  --      0.0522                 1.1792                 9.2661
 IR Inten    --    185.1812                 1.7420                 8.4648

                      4                      5                      6
                     A'                     A'                     A"
 Frequencies --   1664.3588              3415.6600              3545.9236
 Red. masses --      1.1032                 1.0345                 1.1122
 Frc consts  --      1.8005                 7.1107                 8.2395
 IR Inten    --     11.8102                 0.0093                 5.0466

 - Thermochemistry -
 -------------------
 Temperature   298.150 Kelvin.  Pressure   1.00000 Atm.
 Atom     1 has atomic number  7 and mass  14.00307

 Molecular mass:    32.01364 amu.
 Principal axes and moments of inertia in atomic units:
                           1         2         3
     Eigenvalues --     5.58232  52.78164  58.21400
           X            0.01759   0.00000   0.99985
           Y            0.99985   0.00000  -0.01759
           Z           -0.00000   1.00000  -0.00000
 This molecule is an asymmetric top.
 Rotational symmetry number  1.
 Rotational temperatures (Kelvin)     15.51576     1.64099     1.48785
 Rotational constants (GHZ):         323.29606    34.19259    31.00184
 Zero-point vibrational energy      68986.5 (Joules/Mol)
                                   16.48816 (Kcal/Mol)
 Warning -- explicit consideration of   1 degrees of freedom as
           vibrations may cause significant error
 Vibrational temperatures:    377.78  1824.07  1981.68  2394.64  4914.37
          (Kelvin)           5101.79

 Zero-point correction=                           0.026276 (Hartree/Particle)
 Thermal correction to Energy=                    0.029601
 Thermal correction to Enthalpy=                  0.030545
 Thermal correction to Gibbs Free Energy=         0.003513
 Sum of electronic and zero-point Energies=           -131.126415
 Sum of electronic and thermal Energies=              -131.123090
 Sum of electronic and thermal Enthalpies=            -131.122146
 Sum of electronic and thermal Free Energies=         -131.149178

                     E (Thermal)             CV                S
                      KCal/Mol        Cal/Mol-Kelvin    Cal/Mol-Kelvin
 Total                   18.575              8.024             56.892
 Electronic               0.000              0.000              1.377
 Translational            0.889              2.981             36.323
 Rotational               0.889              2.981             17.490
 Vibrational             16.797              2.062              1.701
 Vibration     1          0.670              1.741              1.645

 Optimization completed.
    -- Stationary point found.
 Normal termination of Gaussian 16 at Thu Jun 16 18:24:39 2022.
