 Gaussian 16, Revision B.01,

 ---------------------------------------
 # b3lyp/gen opt freq CPHF(Grid=OneStep)
 ---------------------------------------

 ----------------------------
 hydroxylamine, B3LYP/pcseg-2
 ----------------------------
 Symbolic Z-matrix:
 Charge =  0 Multiplicity = 1

 SCF Done:  E(RB3LYP) =  -131.781604548     A.U. after   11 cycles
 Optimization completed.
    -- Stationary point found.
 Normal termination of Gaussian 16 at Fri Sep 29 07:15:52 2023.

 ------------------------------------------------------------------
 #N Geom=AllCheck Guess=TCheck SCRF=Check GenChk RB3LYP/ChkBas Freq
 ------------------------------------------------------------------

 Structure from the checkpoint file:  "nh2oh.chk"
 ----------------------------
 hydroxylamine, B3LYP/pcseg-2
 ----------------------------
 Charge =  0 Multiplicity = 1

 SCF Done:  E(RB3LYP) =  -131.781604548     A.U. after    1 cycles

  Exact polarizability:  15.096  -1.983  19.074   0.000  -0.000  14.365
 Approx polarizability:  19.439  -2.609  24.414  -0.000   0.000  18.398

                      1                      2                      3
                     A"                     A'                     A'
 Frequencies --    418.5085               926.4612              1138.3180
 Red. masses --      1.0651                 7.1162                 1.2214
 Frc consts  --      0.1099                 3.5988                 0.9325
 IR Inten    --    181.3241                13.3769               132.3754

                      4                      5                      6
                     A"                     A'                     A'
 Frequencies --   1325.3495              1392.6652              1664.1876
 Red. masses --      1.1083                 1.1672                 1.0499
 Frc consts  --      1.1470                 1.3338                 1.7132
 IR Inten    --      0.0181                28.0027                17.4064

                      7                      8                      9
                     A'                     A"                     A'
 Frequencies --   3449.6926              3530.4938              3822.6349
 Red. masses --      1.0473                 1.0964                 1.0683
 Frc consts  --      7.3433                 8.0516                 9.1979
 IR Inten    --      1.1689                 1.8488                43.2309

 - Thermochemistry -
 -------------------
 Temperature   298.150 Kelvin.  Pressure   1.00000 Atm.
 Atom     1 has atomic number  7 and mass  14.00307

 Molecular mass:    33.02146 amu.
 Principal axes and moments of inertia in atomic units:
                           1         2         3
     Eigenvalues --     9.32630  71.07042  71.23992
           X           -0.11443  -0.00000   0.99343
           Y            0.99343  -0.00000   0.11443
           Z            0.00000   1.00000   0.00000
 This molecule is an asymmetric top.
 Rotational symmetry number  1.
 Rotational temperatures (Kelvin)      9.28706     1.21871     1.21581
 Rotational constants (GHZ):         193.51098    25.39370    25.33329
 Zero-point vibrational energy     105680.0 (Joules/Mol)
                                   25.25812 (Kcal/Mol)
 Warning -- explicit consideration of   1 degrees of freedom as
           vibrations may cause significant error
 Vibrational temperatures:    602.14  1332.97  1637.79  1906.88  2003.73
          (Kelvin)           2394.39  4963.34  5079.59  5499.92

 Zero-point correction=                           0.040251 (Hartree/Particle)
 Thermal correction to Energy=                    0.043466
 Thermal correction to Enthalpy=                  0.044410
 Thermal correction to Gibbs Free Energy=         0.017786
 Sum of electronic and zero-point Energies=           -131.741353
 Sum of electronic and thermal Energies=              -131.738138
 Sum of electronic and thermal Enthalpies=            -131.737194
 Sum of electronic and thermal Free Energies=         -131.763819

                     E (Thermal)             CV                S
                      KCal/Mol        Cal/Mol-Kelvin    Cal/Mol-Kelvin
 Total                   27.275              8.392             56.037
 Electronic               0.000              0.000              0.000
 Translational            0.889              2.981             36.415
 Rotational               0.889              2.981             18.497
 Vibrational             25.498              2.430              1.125
 Vibration     1          0.781              1.430              0.897

 Optimization completed.
    -- Stationary point found.
 Normal termination of Gaussian 16 at Fri Sep 29 07:16:24 2023.
 Gaussian 16:  ES64L-G16RevB.01 20-Dec-2017

 ---------------------------------
 # rohf/gen geom=check guess=check
 ---------------------------------

 -------------------------------
 hydroxylamine, ROHF/cc-pVTZ-F12
 -------------------------------
 Structure from the checkpoint file:  "nh2oh.chk"
 Charge =  0 Multiplicity = 1

                         Standard orientation:
 ---------------------------------------------------------------------
 Center     Atomic      Atomic             Coordinates (Angstroms)
 Number     Number       Type             X           Y           Z
 ---------------------------------------------------------------------
      1          7           0        0.009821    0.706143   -0.000000
      2          8           0        0.009821   -0.737489    0.000000
      3          1           0        0.946858   -0.948886    0.000000
      4          1           0       -0.547085    0.952899    0.812165
      5          1           0       -0.547085    0.952899   -0.812165
 ---------------------------------------------------------------------

 SCF Done:  E(ROHF) =  -131.052275397     A.U. after   10 cycles

 The electronic state is 1-A'.
 Alpha  occ. eigenvalues --  -20.58637 -15.60691  -1.39350  -1.08311  -0.69097
 Alpha  occ. eigenvalues --   -0.67606  -0.61726  -0.48509  -0.43073
 Alpha virt. eigenvalues --    0.07378   0.08051   0.09878   0.11456   0.15559
 Alpha virt. eigenvalues --    0.16824   0.17713   0.22702   0.23055   0.27158
 Alpha virt. eigenvalues --    0.28657   0.36412   0.44551   0.44735   0.50976

 Mulliken charges and spin densities:
               1          2
     1  N   -0.449332   0.000000
     2  O   -0.524305   0.000000
     3  H    0.410547   0.000000
     4  H    0.281545   0.000000
     5  H    0.281545   0.000000
 Sum of Mulliken charges =  -0.00000   0.00000

 Dipole moment (field-independent basis, Debye):
    X=             -0.0962    Y=              0.6997    Z=             -0.0000  Tot=              0.7063
 Quadrupole moment (field-independent basis, Debye-Ang):
   XX=            -11.1320   YY=            -12.7745   ZZ=            -11.5186
   XY=             -3.9431   XZ=             -0.0000   YZ=              0.0000

 Normal termination of Gaussian 16 at Fri Sep 29 07:16:30 2023.
