 Gaussian 16, Revision B.01,
 Gaussian 16:  ES64L-G16RevB.01 20-Dec-2017

 --------------------
 # b3lyp/gen opt freq
 --------------------

 ----------------------------
 hydroxylamine, B3LYP/pcseg-2
 ----------------------------
 Symbolic Z-matrix:
 Charge =  0 Multiplicity = 1

 SCF Done:  E(RB3LYP) =  -131.781561469     A.U. after   11 cycles
 SCF Done:  E(RB3LYP) =  -131.781598229     A.U. after    8 cycles
 SCF Done:  E(RB3LYP) =  -131.781604549     A.U. after    7 cycles
 Optimization completed.
    -- Stationary point found.
 Normal termination of Gaussian 16 at Fri Feb 25 08:56:39 2022.

 ------------------------------------------------------------------
 #N Geom=AllCheck Guess=TCheck SCRF=Check GenChk RB3LYP/ChkBas Freq
 ------------------------------------------------------------------

 Structure from the checkpoint file:  "/wrk/irikura/Gau-26649.chk"
 ----------------------------
 hydroxylamine, B3LYP/pcseg-2
 ----------------------------
 Charge =  0 Multiplicity = 1

                         Standard orientation:
 ---------------------------------------------------------------------
 Center     Atomic      Atomic             Coordinates (Angstroms)
 Number     Number       Type             X           Y           Z
 ---------------------------------------------------------------------
      1          7           0        0.009821    0.706143   -0.000000
      2          8           0        0.009821   -0.737489    0.000000
      3          1           0        0.946858   -0.948886    0.000000
      4          1           0       -0.547085    0.952899    0.812165
      5          1           0       -0.547085    0.952899   -0.812165
 ---------------------------------------------------------------------

 SCF Done:  E(RB3LYP) =  -131.781604549     A.U. after    1 cycles

 The electronic state is 1-A'.
 Alpha  occ. eigenvalues --  -19.15263 -14.35645  -1.05911  -0.81168  -0.50954
 Alpha  occ. eigenvalues --   -0.50442  -0.44393  -0.30369  -0.27093
 Alpha virt. eigenvalues --    0.01057   0.02341   0.06880   0.10523   0.25026
 Alpha virt. eigenvalues --    0.25366   0.26735   0.30101   0.33869   0.37501
 Alpha virt. eigenvalues --    0.38736   0.40062   0.44213   0.50002   0.62540

 Mulliken charges:
               1
     1  N   -0.147527
     2  O   -0.335707
     3  H    0.215384
     4  H    0.133925
     5  H    0.133925
 Sum of Mulliken charges =   0.00000

 Dipole moment (field-independent basis, Debye):
    X=             -0.1196    Y=              0.6113    Z=             -0.0000  Tot=              0.6229
 Quadrupole moment (field-independent basis, Debye-Ang):
   XX=            -11.4502   YY=            -12.8933   ZZ=            -11.7441
   XY=             -3.8990   XZ=              0.0000   YZ=             -0.0000

  Exact polarizability:  15.096  -1.983  19.074   0.000   0.000  14.365
 Approx polarizability:  19.439  -2.609  24.414   0.000  -0.000  18.398

                      1                      2                      3
                     A"                     A'                     A'
 Frequencies --    418.5195               926.4643              1138.3167
 Red. masses --      1.0651                 7.1162                 1.2214
 Frc consts  --      0.1099                 3.5988                 0.9325
 IR Inten    --    181.3242                13.3780               132.3782

                      4                      5                      6
                     A"                     A'                     A'
 Frequencies --   1325.3495              1392.6645              1664.1868
 Red. masses --      1.1083                 1.1672                 1.0499
 Frc consts  --      1.1470                 1.3338                 1.7132
 IR Inten    --      0.0181                28.0038                17.4071

                      7                      8                      9
                     A'                     A"                     A'
 Frequencies --   3449.6948              3530.4975              3822.6289
 Red. masses --      1.0473                 1.0964                 1.0683
 Frc consts  --      7.3433                 8.0516                 9.1979
 IR Inten    --      1.1691                 1.8489                43.2308

 - Thermochemistry -
 -------------------
 Temperature   298.150 Kelvin.  Pressure   1.00000 Atm.
 Atom     1 has atomic number  7 and mass  14.00307

 Molecular mass:    33.02146 amu.
 Principal axes and moments of inertia in atomic units:
                           1         2         3
     Eigenvalues --     9.32629  71.07037  71.23987
           X           -0.11443   0.00000   0.99343
           Y            0.99343   0.00000   0.11443
           Z           -0.00000   1.00000  -0.00000
 This molecule is an asymmetric top.
 Rotational symmetry number  1.
 Rotational temperatures (Kelvin)      9.28707     1.21871     1.21581
 Rotational constants (GHZ):         193.51113    25.39372    25.33330
 Zero-point vibrational energy     105680.0 (Joules/Mol)
                                   25.25813 (Kcal/Mol)
 Warning -- explicit consideration of   1 degrees of freedom as
           vibrations may cause significant error
 Vibrational temperatures:    602.16  1332.98  1637.78  1906.88  2003.73
          (Kelvin)           2394.39  4963.34  5079.60  5499.91

 Zero-point correction=                           0.040251 (Hartree/Particle)
 Thermal correction to Energy=                    0.043466
 Thermal correction to Enthalpy=                  0.044410
 Thermal correction to Gibbs Free Energy=         0.017786
 Sum of electronic and zero-point Energies=           -131.741353
 Sum of electronic and thermal Energies=              -131.738138
 Sum of electronic and thermal Enthalpies=            -131.737194
 Sum of electronic and thermal Free Energies=         -131.763819

                     E (Thermal)             CV                S
                      KCal/Mol        Cal/Mol-Kelvin    Cal/Mol-Kelvin
 Total                   27.275              8.392             56.037
 Electronic               0.000              0.000              0.000
 Translational            0.889              2.981             36.415
 Rotational               0.889              2.981             18.497
 Vibrational             25.498              2.430              1.125
 Vibration     1          0.781              1.430              0.897

 Optimization completed.
    -- Stationary point found.
 Normal termination of Gaussian 16 at Fri Feb 25 08:57:01 2022.
