 Gaussian 16, Revision B.01,
 Gaussian 16:  ES64L-G16RevB.01 20-Dec-2017

 --------------------
 # b3lyp/gen opt freq
 --------------------

 ------------------
 NH3, B3LYP/pcseg-2
 ------------------
 Symbolic Z-matrix:
 Charge =  0 Multiplicity = 1

 SCF Done:  E(RB3LYP) =  -56.5890458853     A.U. after    9 cycles
 SCF Done:  E(RB3LYP) =  -56.5893961299     A.U. after    9 cycles
 SCF Done:  E(RB3LYP) =  -56.5894624112     A.U. after    9 cycles
 SCF Done:  E(RB3LYP) =  -56.5894637133     A.U. after    6 cycles
 Optimization completed.
    -- Stationary point found.
 Normal termination of Gaussian 16 at Wed Feb  2 17:40:06 2022.

 ------------------------------------------------------------------
 #N Geom=AllCheck Guess=TCheck SCRF=Check GenChk RB3LYP/ChkBas Freq
 ------------------------------------------------------------------

 Structure from the checkpoint file:  "/wrk/irikura/Gau-14740.chk"
 ------------------
 NH3, B3LYP/pcseg-2
 ------------------
 Charge =  0 Multiplicity = 1

                         Standard orientation:
 ---------------------------------------------------------------------
 Center     Atomic      Atomic             Coordinates (Angstroms)
 Number     Number       Type             X           Y           Z
 ---------------------------------------------------------------------
      1          7           0        0.000000    0.000000    0.110695
      2          1           0        0.000000    0.942497   -0.258289
      3          1           0        0.816226   -0.471248   -0.258289
      4          1           0       -0.816226   -0.471248   -0.258289
 ---------------------------------------------------------------------

 SCF Done:  E(RB3LYP) =  -56.5894637133     A.U. after    1 cycles

 The electronic state is 1-A1.
 Alpha  occ. eigenvalues --  -14.29445  -0.85479  -0.46680  -0.46680  -0.27094
 Alpha virt. eigenvalues --    0.00659   0.07549   0.07549   0.23598   0.23598
 Alpha virt. eigenvalues --    0.26462   0.34947   0.41621   0.41621   0.42557
 Alpha virt. eigenvalues --    0.63962   0.63962   0.96035   0.97347   0.97347

 Mulliken charges:
               1
     1  N   -0.367095
     2  H    0.122365
     3  H    0.122365
     4  H    0.122365
 Sum of Mulliken charges =  -0.00000

 Dipole moment (field-independent basis, Debye):
    X=             -0.0000    Y=             -0.0000    Z=             -1.5921  Tot=              1.5921
 Quadrupole moment (field-independent basis, Debye-Ang):
   XX=             -6.2931   YY=             -6.2931   ZZ=             -9.4411
   XY=             -0.0000   XZ=              0.0000   YZ=              0.0000

  Exact polarizability:  11.640   0.000  11.640  -0.000   0.000  11.842
 Approx polarizability:  14.707  -0.000  14.707   0.000  -0.000  13.699

                      1                      2                      3
                     A1                      E                      E
 Frequencies --   1023.1294              1668.1454              1668.1454
 Red. masses --      1.1827                 1.0676                 1.0676
 Frc consts  --      0.7295                 1.7503                 1.7503
 IR Inten    --    179.0256                21.3038                21.3041

                      4                      5                      6
                     A1                      E                      E
 Frequencies --   3475.8023              3599.6318              3599.6318
 Red. masses --      1.0252                 1.0903                 1.0903
 Frc consts  --      7.2971                 8.3237                 8.3237
 IR Inten    --      1.1385                 3.2302                 3.2301

 - Thermochemistry -
 -------------------
 Temperature   298.150 Kelvin.  Pressure   1.00000 Atm.
 Atom     1 has atomic number  7 and mass  14.00307

 Molecular mass:    17.02655 amu.
 Principal axes and moments of inertia in atomic units:
                           1         2         3
     Eigenvalues --     6.00447   6.00447   9.59099
           X           -0.55470   0.83205   0.00000
           Y            0.83205   0.55470   0.00000
           Z           -0.00000  -0.00000   1.00000
 This molecule is an oblate symmetric top.
 Rotational symmetry number  3.
 Rotational temperatures (Kelvin)     14.42491    14.42491     9.03075
 Rotational constants (GHZ):         300.56634   300.56634   188.17039
 Zero-point vibrational energy      89926.2 (Joules/Mol)
                                   21.49288 (Kcal/Mol)
 Vibrational temperatures:   1472.05  2400.09  2400.09  5000.90  5179.07
          (Kelvin)           5179.07

 Zero-point correction=                           0.034251 (Hartree/Particle)
 Thermal correction to Energy=                    0.037122
 Thermal correction to Enthalpy=                  0.038066
 Thermal correction to Gibbs Free Energy=         0.016227
 Sum of electronic and zero-point Energies=            -56.555213
 Sum of electronic and thermal Energies=               -56.552342
 Sum of electronic and thermal Enthalpies=             -56.551397
 Sum of electronic and thermal Free Energies=          -56.573237

                     E (Thermal)             CV                S
                      KCal/Mol        Cal/Mol-Kelvin    Cal/Mol-Kelvin
 Total                   23.295              6.396             45.966
 Electronic               0.000              0.000              0.000
 Translational            0.889              2.981             34.441
 Rotational               0.889              2.981             11.428
 Vibrational             21.517              0.435              0.097

 Optimization completed.
    -- Stationary point found.
 Normal termination of Gaussian 16 at Wed Feb  2 17:40:26 2022.
