 Gaussian 16, Revision B.01,
 Gaussian 16:  ES64L-G16RevB.01 20-Dec-2017

 --------------------
 # b3lyp/gen opt freq
 --------------------

 ----------------------------
 ammonia oxide, B3LYP/pcseg-2
 ----------------------------
 Symbolic Z-matrix:
 Charge =  0 Multiplicity = 1

 SCF Done:  E(RB3LYP) =  -131.742718022     A.U. after   14 cycles
 SCF Done:  E(RB3LYP) =  -131.742786311     A.U. after    8 cycles
 Optimization completed.
    -- Stationary point found.
 Normal termination of Gaussian 16 at Fri Jun 17 17:57:53 2022.

 ------------------------------------------------------------------
 #N Geom=AllCheck Guess=TCheck SCRF=Check GenChk RB3LYP/ChkBas Freq
 ------------------------------------------------------------------

 Structure from the checkpoint file:  "/wrk/irikura/Gau-11872.chk"
 ----------------------------
 ammonia oxide, B3LYP/pcseg-2
 ----------------------------
 Charge =  0 Multiplicity = 1

                         Standard orientation:
 ---------------------------------------------------------------------
 Center     Atomic      Atomic             Coordinates (Angstroms)
 Number     Number       Type             X           Y           Z
 ---------------------------------------------------------------------
      1          7           0        0.000000    0.000000   -0.537991
      2          8           0        0.000000    0.000000    0.823247
      3          1           0        0.000000    0.950384   -0.940012
      4          1           0        0.823057   -0.475192   -0.940012
      5          1           0       -0.823057   -0.475192   -0.940012
 ---------------------------------------------------------------------

 SCF Done:  E(RB3LYP) =  -131.742786311     A.U. after    1 cycles

 The electronic state is 1-A1.
 Alpha  occ. eigenvalues --  -19.04557 -14.46063  -1.05013  -0.80872  -0.57185
 Alpha  occ. eigenvalues --   -0.57185  -0.42653  -0.21606  -0.21606
 Alpha virt. eigenvalues --   -0.02851   0.03648   0.03648   0.09352   0.21616
 Alpha virt. eigenvalues --    0.21616   0.27444   0.30426   0.34382   0.34382
 Alpha virt. eigenvalues --    0.36227   0.43112   0.43112   0.49433   0.66031

 Mulliken charges:
               1
     1  N    0.201797
     2  O   -0.649180
     3  H    0.149127
     4  H    0.149127
     5  H    0.149127
 Sum of Mulliken charges =  -0.00000

 Dipole moment (field-independent basis, Debye):
    X=             -0.0000    Y=              0.0000    Z=             -5.3907  Tot=              5.3907
 Quadrupole moment (field-independent basis, Debye-Ang):
   XX=            -11.7006   YY=            -11.7006   ZZ=            -13.2076
   XY=             -0.0000   XZ=              0.0000   YZ=             -0.0000

  Exact polarizability:  13.941  -0.000  13.941  -0.000   0.000  23.514
 Approx polarizability:  17.531  -0.000  17.531   0.000  -0.000  32.390

                      1                      2                      3
                     A1                      E                      E
 Frequencies --    946.4018              1150.5873              1150.5873
 Red. masses --     13.4159                 1.2334                 1.2334
 Frc consts  --      7.0798                 0.9621                 0.9621
 IR Inten    --     68.7376                24.4818                24.4818

                      4                      5                      6
                     A1                      E                      E
 Frequencies --   1543.1730              1646.1863              1646.1865
 Red. masses --      1.0962                 1.0599                 1.0599
 Frc consts  --      1.5381                 1.6923                 1.6923
 IR Inten    --      1.2644                 9.0617                 9.0626

                      7                      8                      9
                     A1                      E                      E
 Frequencies --   3206.0509              3216.6962              3216.6966
 Red. masses --      1.0202                 1.0940                 1.0940
 Frc consts  --      6.1782                 6.6691                 6.6691
 IR Inten    --    103.8050                 2.1382                 2.1373

 - Thermochemistry -
 -------------------
 Temperature   298.150 Kelvin.  Pressure   1.00000 Atm.
 Atom     1 has atomic number  7 and mass  14.00307

 Molecular mass:    33.02146 amu.
 Principal axes and moments of inertia in atomic units:
                           1         2         3
     Eigenvalues --     9.75220  66.75844  66.75844
           X            0.00000   0.99504  -0.09950
           Y            0.00000   0.09950   0.99504
           Z            1.00000  -0.00000  -0.00000
 This molecule is a prolate symmetric top.
 Rotational symmetry number  3.
 Rotational temperatures (Kelvin)      8.88147     1.29742     1.29742
 Rotational constants (GHZ):         185.05989    27.03390    27.03390
 Zero-point vibrational energy     106004.5 (Joules/Mol)
                                   25.33568 (Kcal/Mol)
 Vibrational temperatures:   1361.66  1655.44  1655.44  2220.28  2368.49
          (Kelvin)           2368.50  4612.79  4628.11  4628.11

 Zero-point correction=                           0.040375 (Hartree/Particle)
 Thermal correction to Energy=                    0.043303
 Thermal correction to Enthalpy=                  0.044247
 Thermal correction to Gibbs Free Energy=         0.019119
 Sum of electronic and zero-point Energies=           -131.702411
 Sum of electronic and thermal Energies=              -131.699483
 Sum of electronic and thermal Enthalpies=            -131.698539
 Sum of electronic and thermal Free Energies=         -131.723667

                     E (Thermal)             CV                S
                      KCal/Mol        Cal/Mol-Kelvin    Cal/Mol-Kelvin
 Total                   27.173              7.034             52.886
 Electronic               0.000              0.000              0.000
 Translational            0.889              2.981             36.415
 Rotational               0.889              2.981             16.231
 Vibrational             25.396              1.072              0.240

 Optimization completed.
    -- Stationary point found.
 Normal termination of Gaussian 16 at Fri Jun 17 17:58:02 2022.
