 Gaussian 16, Revision B.01,
 Gaussian 16:  ES64L-G16RevB.01 20-Dec-2017

 --------------------
 # b3lyp/gen opt freq
 --------------------

 -------------------------------
 ammonium radical, B3LYP/pcseg-2
 -------------------------------
 Symbolic Z-matrix:
 Charge =  0 Multiplicity = 2

 SCF Done:  E(UB3LYP) =  -57.0939955291     A.U. after   10 cycles
 SCF Done:  E(UB3LYP) =  -57.0941295684     A.U. after    8 cycles
 SCF Done:  E(UB3LYP) =  -57.0941342668     A.U. after    7 cycles
 Optimization completed.
    -- Stationary point found.
 Normal termination of Gaussian 16 at Fri Jun 17 20:27:21 2022.

 ------------------------------------------------------------------
 #N Geom=AllCheck Guess=TCheck SCRF=Check GenChk UB3LYP/ChkBas Freq
 ------------------------------------------------------------------

 Structure from the checkpoint file:  "/wrk/irikura/Gau-25469.chk"
 -------------------------------
 ammonium radical, B3LYP/pcseg-2
 -------------------------------
 Charge =  0 Multiplicity = 2

                         Standard orientation:
 ---------------------------------------------------------------------
 Center     Atomic      Atomic             Coordinates (Angstroms)
 Number     Number       Type             X           Y           Z
 ---------------------------------------------------------------------
      1          7           0        0.000000    0.000000    0.000000
      2          1           0        0.605436    0.605436    0.605436
      3          1           0       -0.605436   -0.605436    0.605436
      4          1           0       -0.605436    0.605436   -0.605436
      5          1           0        0.605436   -0.605436   -0.605436
 ---------------------------------------------------------------------

 SCF Done:  E(UB3LYP) =  -57.0941342668     A.U. after    1 cycles

 The electronic state is 2-A1.
 Alpha  occ. eigenvalues --  -14.42399  -0.98008  -0.56173  -0.56173  -0.56173
 Alpha  occ. eigenvalues --   -0.09552
 Alpha virt. eigenvalues --    0.01893   0.01893   0.01893   0.14895   0.14895
 Alpha virt. eigenvalues --    0.14895   0.27970   0.33029   0.33029   0.33029
 Alpha virt. eigenvalues --    0.45902   0.51209   0.51209   0.89946   0.89946

  Beta  occ. eigenvalues --  -14.41787  -0.97027  -0.55464  -0.55464  -0.55464
  Beta virt. eigenvalues --   -0.03923   0.03893   0.03893   0.03893   0.15877
  Beta virt. eigenvalues --    0.15877   0.15877   0.29743   0.34127   0.34127
  Beta virt. eigenvalues --    0.34127   0.46612   0.51912   0.51912   0.90700

 Mulliken charges and spin densities:
               1          2
     1  N    0.495675  -0.492871
     2  H   -0.123919   0.373218
     3  H   -0.123919   0.373218
     4  H   -0.123919   0.373218
     5  H   -0.123919   0.373218
 Sum of Mulliken charges =   0.00000   1.00000

 Dipole moment (field-independent basis, Debye):
    X=              0.0000    Y=              0.0000    Z=              0.0000  Tot=              0.0000
 Quadrupole moment (field-independent basis, Debye-Ang):
   XX=            -12.8019   YY=            -12.8019   ZZ=            -12.8019
   XY=              0.0000   XZ=              0.0000   YZ=             -0.0000

  Exact polarizability:  99.056   0.000  99.056   0.000   0.000  99.056
 Approx polarizability:  95.796  -0.000  95.796   0.000   0.000  95.796

                      1                      2                      3
                     T2                     T2                     T2
 Frequencies --   1260.4625              1260.4625              1260.4625
 Red. masses --      1.1403                 1.1403                 1.1403
 Frc consts  --      1.0674                 1.0674                 1.0674
 IR Inten    --      9.0592                 9.0592                 9.0592

                      4                      5                      6
                      E                      E                     T2
 Frequencies --   1544.5235              1544.5235              2792.2396
 Red. masses --      1.0078                 1.0078                 1.1090
 Frc consts  --      1.4165                 1.4165                 5.0944
 IR Inten    --      0.0000                 0.0000              1280.4178

                      7                      8                      9
                     T2                     T2                     A1
 Frequencies --   2792.2396              2792.2396              2924.8757
 Red. masses --      1.1090                 1.1090                 1.0078
 Frc consts  --      5.0944                 5.0944                 5.0798
 IR Inten    --   1280.4177              1280.4177                 0.0000

 - Thermochemistry -
 -------------------
 Temperature   298.150 Kelvin.  Pressure   1.00000 Atm.
 Atom     1 has atomic number  7 and mass  14.00307

 Molecular mass:    18.03437 amu.
 Principal axes and moments of inertia in atomic units:
                           1         2         3
     Eigenvalues --    10.55382  10.55382  10.55382
           X            1.00000   0.00000  -0.00000
           Y           -0.00000   0.00000   1.00000
           Z           -0.00000   1.00000  -0.00000
 This molecule is a spherical top.
 Rotational symmetry number 12.
 Rotational temperatures (Kelvin)      8.20688     8.20688     8.20688
 Rotational constants (GHZ):         171.00365   171.00365   171.00365
 Zero-point vibrational energy     108692.9 (Joules/Mol)
                                   25.97822 (Kcal/Mol)
 Vibrational temperatures:   1813.52  1813.52  1813.52  2222.22  2222.22
          (Kelvin)           4017.41  4017.41  4017.41  4208.24

 Zero-point correction=                           0.041399 (Hartree/Particle)
 Thermal correction to Energy=                    0.044279
 Thermal correction to Enthalpy=                  0.045223
 Thermal correction to Gibbs Free Energy=         0.023370
 Sum of electronic and zero-point Energies=            -57.052735
 Sum of electronic and thermal Energies=               -57.049855
 Sum of electronic and thermal Enthalpies=             -57.048911
 Sum of electronic and thermal Free Energies=          -57.070765

                     E (Thermal)             CV                S
                      KCal/Mol        Cal/Mol-Kelvin    Cal/Mol-Kelvin
 Total                   27.786              6.597             45.995
 Electronic               0.000              0.000              1.377
 Translational            0.889              2.981             34.612
 Rotational               0.889              2.981              9.889
 Vibrational             26.008              0.636              0.116

 Optimization completed.
    -- Stationary point found.
 Normal termination of Gaussian 16 at Fri Jun 17 20:27:31 2022.
