 Gaussian 16, Revision B.01,

 ---------------------------------------
 # b3lyp/gen opt freq CPHF(Grid=OneStep)
 ---------------------------------------

 ----------------------------------
 N-methylpyrrolidone, B3LYP/pcseg-2
 ----------------------------------
 Symbolic Z-matrix:
 Charge =  0 Multiplicity = 1

 SCF Done:  E(RB3LYP) =  -326.076356443     A.U. after   13 cycles
 Optimization completed.
    -- Stationary point found.
 Normal termination of Gaussian 16 at Fri Sep 29 07:31:22 2023.

 ------------------------------------------------------------------
 #N Geom=AllCheck Guess=TCheck SCRF=Check GenChk RB3LYP/ChkBas Freq
 ------------------------------------------------------------------

 Structure from the checkpoint file:  "NMP.chk"
 ----------------------------------
 N-methylpyrrolidone, B3LYP/pcseg-2
 ----------------------------------
 Charge =  0 Multiplicity = 1

 SCF Done:  E(RB3LYP) =  -326.076356443     A.U. after    1 cycles

  Exact polarizability:  75.195  -1.282  77.234  -0.385  -0.547  53.883
 Approx polarizability:  95.643   2.373 112.850  -1.137  -0.905  80.673

                      1                      2                      3
                      A                      A                      A
 Frequencies --    142.0268               148.9841               157.2677
 Red. masses --      1.4999                 1.6084                 2.2749
 Frc consts  --      0.0178                 0.0210                 0.0332
 IR Inten    --      1.4183                 0.4181                 3.6179

                      4                      5                      6
                      A                      A                      A
 Frequencies --    203.1342               305.7147               471.5803
 Red. masses --      1.9886                 3.0575                 4.5445
 Frc consts  --      0.0483                 0.1684                 0.5955
 IR Inten    --      1.8433                 6.7323                 7.5384

                      7                      8                      9
                      A                      A                      A
 Frequencies --    564.8084               619.1134               661.9955
 Red. masses --      2.2766                 3.6223                 4.7733
 Frc consts  --      0.4279                 0.8180                 1.2325
 IR Inten    --      4.6046                 1.6166                 9.9532

                     10                     11                     12
                      A                      A                      A
 Frequencies --    748.4442               857.7460               906.1349
 Red. masses --      2.4535                 2.0563                 1.4682
 Frc consts  --      0.8098                 0.8913                 0.7103
 IR Inten    --      0.8393                10.1649                 1.8575

                     13                     14                     15
                      A                      A                      A
 Frequencies --    930.4209               997.2570              1029.9859
 Red. masses --      2.3560                 2.1736                 2.4735
 Frc consts  --      1.2017                 1.2736                 1.5460
 IR Inten    --      2.3676                11.7742                 2.1816

                     16                     17                     18
                      A                      A                      A
 Frequencies --   1089.3793              1123.9364              1151.6052
 Red. masses --      1.6648                 2.1637                 1.2615
 Frc consts  --      1.1641                 1.6104                 0.9857
 IR Inten    --      1.7288                39.8092                 1.4467

                     19                     20                     21
                      A                      A                      A
 Frequencies --   1193.8339              1224.1107              1247.2111
 Red. masses --      1.3668                 1.4486                 1.2708
 Frc consts  --      1.1477                 1.2789                 1.1647
 IR Inten    --      4.0032                 4.5196                13.2990

                     22                     23                     24
                      A                      A                      A
 Frequencies --   1286.7509              1309.7890              1320.0910
 Red. masses --      2.6441                 1.4860                 1.8803
 Frc consts  --      2.5794                 1.5020                 1.9306
 IR Inten    --     35.5340                21.7807                63.1063

                     25                     26                     27
                      A                      A                      A
 Frequencies --   1347.5049              1433.1828              1453.3587
 Red. masses --      1.4764                 1.6329                 1.4393
 Frc consts  --      1.5795                 1.9762                 1.7912
 IR Inten    --      3.1953                61.7392                43.0482

                     28                     29                     30
                      A                      A                      A
 Frequencies --   1474.2513              1495.1792              1502.5826
 Red. masses --      1.0898                 1.0433                 1.0868
 Frc consts  --      1.3956                 1.3742                 1.4456
 IR Inten    --      1.4533                 9.4145                 7.3171

                     31                     32                     33
                      A                      A                      A
 Frequencies --   1514.5609              1542.1681              1760.8216
 Red. masses --      1.1275                 1.1500                10.9245
 Frc consts  --      1.5238                 1.6114                19.9565
 IR Inten    --     12.0897                10.9030               451.6560

                     34                     35                     36
                      A                      A                      A
 Frequencies --   2977.8006              3008.2221              3044.4161
 Red. masses --      1.0720                 1.0418                 1.0826
 Frc consts  --      5.6009                 5.5546                 5.9118
 IR Inten    --     63.2940                65.0641                36.7236

                     37                     38                     39
                      A                      A                      A
 Frequencies --   3047.3396              3057.4010              3062.5929
 Red. masses --      1.0726                 1.0987                 1.0679
 Frc consts  --      5.8686                 6.0509                 5.9013
 IR Inten    --      0.6152                35.0994                40.1799

                     40                     41                     42
                      A                      A                      A
 Frequencies --   3104.5645              3116.4605              3135.5403
 Red. masses --      1.0987                 1.0990                 1.0974
 Frc consts  --      6.2395                 6.2887                 6.3569
 IR Inten    --     18.8559                17.3019                 1.4860

 - Thermochemistry -
 -------------------
 Temperature   298.150 Kelvin.  Pressure   1.00000 Atm.
 Atom     1 has atomic number  8 and mass  15.99491

 Molecular mass:    99.06841 amu.
 Principal axes and moments of inertia in atomic units:
                           1         2         3
     Eigenvalues --   479.15451 602.582741029.36716
           X            0.98718  -0.15961   0.00081
           Y            0.15961   0.98718   0.00103
           Z           -0.00096  -0.00089   1.00000
 This molecule is an asymmetric top.
 Rotational symmetry number  1.
 Warning -- assumption of classical behavior for rotation
           may cause significant error
 Rotational temperatures (Kelvin)      0.18076     0.14374     0.08414
 Rotational constants (GHZ):           3.76651     2.99501     1.75325
 Zero-point vibrational energy     363480.9 (Joules/Mol)
                                   86.87403 (Kcal/Mol)
 Warning -- explicit consideration of   8 degrees of freedom as
           vibrations may cause significant error
 Vibrational temperatures:    204.34   214.35   226.27   292.26   439.86
          (Kelvin)            678.50   812.63   890.77   952.46  1076.84
                             1234.11  1303.73  1338.67  1434.83  1481.92
                             1567.37  1617.09  1656.90  1717.66  1761.22
                             1794.46  1851.35  1884.49  1899.32  1938.76
                             2062.03  2091.06  2121.12  2151.23  2161.88
                             2179.12  2218.84  2533.43  4284.39  4328.16
                             4380.24  4384.44  4398.92  4406.39  4466.78
                             4483.89  4511.34

 Zero-point correction=                           0.138443 (Hartree/Particle)
 Thermal correction to Energy=                    0.145407
 Thermal correction to Enthalpy=                  0.146351
 Thermal correction to Gibbs Free Energy=         0.107500
 Sum of electronic and zero-point Energies=           -325.937914
 Sum of electronic and thermal Energies=              -325.930950
 Sum of electronic and thermal Enthalpies=            -325.930006
 Sum of electronic and thermal Free Energies=         -325.968856

                     E (Thermal)             CV                S
                      KCal/Mol        Cal/Mol-Kelvin    Cal/Mol-Kelvin
 Total                   91.244             24.969             81.768
 Electronic               0.000              0.000              0.000
 Translational            0.889              2.981             39.690
 Rotational               0.889              2.981             27.188
 Vibrational             89.467             19.007             14.890
 Vibration     1          0.615              1.911              2.776
 Vibration     2          0.618              1.904              2.685
 Vibration     3          0.621              1.895              2.582
 Vibration     4          0.639              1.835              2.105
 Vibration     5          0.696              1.663              1.385
 Vibration     6          0.829              1.313              0.733
 Vibration     7          0.921              1.107              0.514
 Vibration     8          0.979              0.992              0.418

 Optimization completed.
    -- Stationary point found.
 Normal termination of Gaussian 16 at Fri Sep 29 08:01:16 2023.
 Gaussian 16:  ES64L-G16RevB.01 20-Dec-2017

 ---------------------------------
 # rohf/gen geom=check guess=check
 ---------------------------------

 -------------------------------------
 N-methylpyrrolidone, ROHF/cc-pVTZ-F12
 -------------------------------------
 Structure from the checkpoint file:  "NMP.chk"
 Charge =  0 Multiplicity = 1

                         Standard orientation:
 ---------------------------------------------------------------------
 Center     Atomic      Atomic             Coordinates (Angstroms)
 Number     Number       Type             X           Y           Z
 ---------------------------------------------------------------------
      1          8           0        0.931939    1.825540   -0.039619
      2          6           0        0.181822    0.869379   -0.003964
      3          7           0        0.559368   -0.443962   -0.047388
      4          6           0       -1.337572    0.906117    0.124362
      5          6           0        1.939416   -0.864770   -0.014160
      6          6           0       -0.539089   -1.379973    0.122004
      7          6           0       -1.786947   -0.528426   -0.177636
      8          1           0       -1.575211    1.210374    1.146378
      9          1           0       -1.755449    1.657217   -0.541947
     10          1           0        2.564517    0.017327   -0.127915
     11          1           0        2.182099   -1.352532    0.934742
     12          1           0        2.151336   -1.564630   -0.825152
     13          1           0       -0.435175   -2.225648   -0.560498
     14          1           0       -0.552635   -1.781441    1.142960
     15          1           0       -2.049169   -0.624693   -1.231147
     16          1           0       -2.647176   -0.846516    0.407609
 ---------------------------------------------------------------------

 SCF Done:  E(ROHF) =  -324.046629538     A.U. after   12 cycles

 The electronic state is 1-A.
 Alpha  occ. eigenvalues --  -20.50792 -15.58098 -11.33833 -11.27332 -11.25574
 Alpha  occ. eigenvalues --  -11.24085 -11.23718  -1.37438  -1.25904  -1.07840
 Alpha  occ. eigenvalues --   -0.97311  -0.94269  -0.83481  -0.73431  -0.68911
 Alpha  occ. eigenvalues --   -0.67383  -0.63692  -0.60875  -0.58147  -0.56680
 Alpha  occ. eigenvalues --   -0.55826  -0.53202  -0.53194  -0.50217  -0.48071
 Alpha  occ. eigenvalues --   -0.40982  -0.37174
 Alpha virt. eigenvalues --    0.04026   0.04353   0.05268   0.05371   0.06655
 Alpha virt. eigenvalues --    0.07484   0.08073   0.08697   0.09102   0.10176
 Alpha virt. eigenvalues --    0.11053   0.11687   0.11758   0.12633   0.13444

 Mulliken charges and spin densities:
               1          2
     1  O   -0.706386   0.000000
     2  C    0.667368   0.000000
     3  N   -0.400335   0.000000
     4  C   -0.121218   0.000000
     5  C   -0.211716   0.000000
     6  C   -0.036353   0.000000
     7  C   -0.138313   0.000000
     8  H    0.099782   0.000000
     9  H    0.112643   0.000000
    10  H    0.165742   0.000000
    11  H    0.094368   0.000000
    12  H    0.099806   0.000000
    13  H    0.100067   0.000000
    14  H    0.097974   0.000000
    15  H    0.097119   0.000000
    16  H    0.079454   0.000000
 Sum of Mulliken charges =  -0.00000   0.00000

 Dipole moment (field-independent basis, Debye):
    X=             -2.1705    Y=             -3.7924    Z=              0.2631  Tot=              4.3775
 Quadrupole moment (field-independent basis, Debye-Ang):
   XX=            -40.9491   YY=            -48.7659   ZZ=            -41.9663
   XY=             -5.2501   XZ=             -0.0302   YZ=              0.2193

 Normal termination of Gaussian 16 at Fri Sep 29 08:15:36 2023.
