 Gaussian 16, Revision B.01,
 Gaussian 16:  ES64L-G16RevB.01 20-Dec-2017

 --------------------
 # b3lyp/gen opt freq
 --------------------

 ----------------------------------
 N-methylpyrrolidone, B3LYP/pcseg-2
 ----------------------------------
 Symbolic Z-matrix:
 Charge =  0 Multiplicity = 1

 SCF Done:  E(RB3LYP) =  -326.076037014     A.U. after   13 cycles
 SCF Done:  E(RB3LYP) =  -326.076346122     A.U. after   10 cycles
 SCF Done:  E(RB3LYP) =  -326.076343679     A.U. after    8 cycles
 SCF Done:  E(RB3LYP) =  -326.076355351     A.U. after    8 cycles
 SCF Done:  E(RB3LYP) =  -326.076356299     A.U. after    7 cycles
 SCF Done:  E(RB3LYP) =  -326.076356443     A.U. after    6 cycles
 Optimization completed.
    -- Stationary point found.
 Normal termination of Gaussian 16 at Sun Feb 27 18:41:06 2022.

 ------------------------------------------------------------------
 #N Geom=AllCheck Guess=TCheck SCRF=Check GenChk RB3LYP/ChkBas Freq
 ------------------------------------------------------------------

 Structure from the checkpoint file:  "/wrk/irikura/Gau-5625.chk"
 ----------------------------------
 N-methylpyrrolidone, B3LYP/pcseg-2
 ----------------------------------
 Charge =  0 Multiplicity = 1

                         Standard orientation:
 ---------------------------------------------------------------------
 Center     Atomic      Atomic             Coordinates (Angstroms)
 Number     Number       Type             X           Y           Z
 ---------------------------------------------------------------------
      1          8           0        0.931939    1.825540   -0.039619
      2          6           0        0.181822    0.869379   -0.003964
      3          7           0        0.559368   -0.443962   -0.047388
      4          6           0       -1.337572    0.906117    0.124362
      5          6           0        1.939416   -0.864770   -0.014160
      6          6           0       -0.539089   -1.379973    0.122004
      7          6           0       -1.786947   -0.528426   -0.177636
      8          1           0       -1.575211    1.210374    1.146378
      9          1           0       -1.755449    1.657217   -0.541947
     10          1           0        2.564517    0.017327   -0.127915
     11          1           0        2.182099   -1.352532    0.934742
     12          1           0        2.151336   -1.564630   -0.825152
     13          1           0       -0.435175   -2.225648   -0.560498
     14          1           0       -0.552635   -1.781441    1.142960
     15          1           0       -2.049169   -0.624693   -1.231147
     16          1           0       -2.647176   -0.846516    0.407609
 ---------------------------------------------------------------------

 SCF Done:  E(RB3LYP) =  -326.076356443     A.U. after    1 cycles

 The electronic state is 1-A.
 Alpha  occ. eigenvalues --  -19.08183 -14.34320 -10.26473 -10.21906 -10.20404
 Alpha  occ. eigenvalues --  -10.18775 -10.18140  -1.03520  -0.95054  -0.80789
 Alpha  occ. eigenvalues --   -0.72331  -0.70295  -0.61890  -0.54444  -0.51403
 Alpha  occ. eigenvalues --   -0.49799  -0.45703  -0.44715  -0.42659  -0.41308
 Alpha  occ. eigenvalues --   -0.39612  -0.38866  -0.38483  -0.36605  -0.34049
 Alpha  occ. eigenvalues --   -0.25509  -0.24732
 Alpha virt. eigenvalues --    0.00210   0.01749   0.02570   0.03509   0.04210
 Alpha virt. eigenvalues --    0.06396   0.07804   0.08664   0.09335   0.09651
 Alpha virt. eigenvalues --    0.10744   0.12360   0.13581   0.14961   0.15596

 Mulliken charges:
               1
     1  O   -0.478487
     2  C    0.349928
     3  N   -0.282348
     4  C   -0.040869
     5  C    0.057989
     6  C    0.093348
     7  C   -0.086275
     8  H    0.047850
     9  H    0.059889
    10  H    0.069231
    11  H    0.025724
    12  H    0.028834
    13  H    0.034063
    14  H    0.029651
    15  H    0.048939
    16  H    0.042532
 Sum of Mulliken charges =  -0.00000

 Dipole moment (field-independent basis, Debye):
    X=             -1.8359    Y=             -3.6569    Z=              0.2249  Tot=              4.0980
 Quadrupole moment (field-independent basis, Debye-Ang):
   XX=            -41.1292   YY=            -48.5042   ZZ=            -42.1523
   XY=             -4.9124   XZ=             -0.0202   YZ=              0.2126

  Exact polarizability:  75.195  -1.282  77.234  -0.385  -0.547  53.884
 Approx polarizability:  95.643   2.373 112.850  -1.137  -0.905  80.673

                      1                      2                      3
                      A                      A                      A
 Frequencies --    142.0249               148.9815               157.2673
 Red. masses --      1.4999                 1.6084                 2.2750
 Frc consts  --      0.0178                 0.0210                 0.0332
 IR Inten    --      1.4184                 0.4180                 3.6180

                      4                      5                      6
                      A                      A                      A
 Frequencies --    203.1333               305.7148               471.5797
 Red. masses --      1.9886                 3.0575                 4.5445
 Frc consts  --      0.0483                 0.1684                 0.5955
 IR Inten    --      1.8432                 6.7323                 7.5386

                      7                      8                      9
                      A                      A                      A
 Frequencies --    564.8077               619.1131               661.9945
 Red. masses --      2.2766                 3.6222                 4.7733
 Frc consts  --      0.4279                 0.8180                 1.2325
 IR Inten    --      4.6046                 1.6166                 9.9530

                     10                     11                     12
                      A                      A                      A
 Frequencies --    748.4450               857.7484               906.1356
 Red. masses --      2.4535                 2.0563                 1.4682
 Frc consts  --      0.8098                 0.8914                 0.7103
 IR Inten    --      0.8393                10.1657                 1.8575

                     13                     14                     15
                      A                      A                      A
 Frequencies --    930.4207               997.2583              1029.9854
 Red. masses --      2.3560                 2.1736                 2.4735
 Frc consts  --      1.2017                 1.2737                 1.5460
 IR Inten    --      2.3675                11.7740                 2.1815

                     16                     17                     18
                      A                      A                      A
 Frequencies --   1089.3810              1123.9393              1151.6067
 Red. masses --      1.6648                 2.1637                 1.2615
 Frc consts  --      1.1641                 1.6104                 0.9857
 IR Inten    --      1.7291                39.8136                 1.4466

                     19                     20                     21
                      A                      A                      A
 Frequencies --   1193.8352              1224.1099              1247.2130
 Red. masses --      1.3668                 1.4486                 1.2708
 Frc consts  --      1.1478                 1.2789                 1.1647
 IR Inten    --      4.0035                 4.5191                13.2987

                     22                     23                     24
                      A                      A                      A
 Frequencies --   1286.7537              1309.7891              1320.0916
 Red. masses --      2.6440                 1.4860                 1.8803
 Frc consts  --      2.5793                 1.5020                 1.9306
 IR Inten    --     35.5298                21.7798                63.1122

                     25                     26                     27
                      A                      A                      A
 Frequencies --   1347.5054              1433.1835              1453.3575
 Red. masses --      1.4764                 1.6329                 1.4393
 Frc consts  --      1.5795                 1.9761                 1.7912
 IR Inten    --      3.1961                61.7357                43.0535

                     28                     29                     30
                      A                      A                      A
 Frequencies --   1474.2525              1495.1825              1502.5847
 Red. masses --      1.0898                 1.0433                 1.0868
 Frc consts  --      1.3956                 1.3742                 1.4456
 IR Inten    --      1.4540                 9.4152                 7.3185

                     31                     32                     33
                      A                      A                      A
 Frequencies --   1514.5612              1542.1711              1760.8218
 Red. masses --      1.1275                 1.1500                10.9242
 Frc consts  --      1.5238                 1.6114                19.9558
 IR Inten    --     12.0898                10.9037               451.6592

                     34                     35                     36
                      A                      A                      A
 Frequencies --   2977.7949              3008.2232              3044.4167
 Red. masses --      1.0720                 1.0418                 1.0826
 Frc consts  --      5.6008                 5.5546                 5.9117
 IR Inten    --     63.2987                65.0657                36.7413

                     37                     38                     39
                      A                      A                      A
 Frequencies --   3047.3362              3057.4052              3062.5944
 Red. masses --      1.0726                 1.0987                 1.0679
 Frc consts  --      5.8686                 6.0509                 5.9013
 IR Inten    --      0.6093                35.1085                40.1624

                     40                     41                     42
                      A                      A                      A
 Frequencies --   3104.5672              3116.4570              3135.5294
 Red. masses --      1.0987                 1.0990                 1.0974
 Frc consts  --      6.2395                 6.2887                 6.3569
 IR Inten    --     18.8492                17.3091                 1.4852

 - Thermochemistry -
 -------------------
 Temperature   298.150 Kelvin.  Pressure   1.00000 Atm.
 Atom     1 has atomic number  8 and mass  15.99491

 Molecular mass:    99.06841 amu.
 Principal axes and moments of inertia in atomic units:
                           1         2         3
     Eigenvalues --   479.15441 602.582841029.36716
           X            0.98718  -0.15961   0.00081
           Y            0.15961   0.98718   0.00103
           Z           -0.00096  -0.00089   1.00000
 This molecule is an asymmetric top.
 Rotational symmetry number  1.
 Warning -- assumption of classical behavior for rotation
           may cause significant error
 Rotational temperatures (Kelvin)      0.18076     0.14374     0.08414
 Rotational constants (GHZ):           3.76651     2.99501     1.75325
 Zero-point vibrational energy     363481.0 (Joules/Mol)
                                   86.87404 (Kcal/Mol)
 Warning -- explicit consideration of   8 degrees of freedom as
           vibrations may cause significant error
 Vibrational temperatures:    204.34   214.35   226.27   292.26   439.86
          (Kelvin)            678.50   812.63   890.77   952.46  1076.85
                             1234.11  1303.73  1338.67  1434.83  1481.92
                             1567.38  1617.10  1656.91  1717.66  1761.22
                             1794.46  1851.35  1884.49  1899.32  1938.76
                             2062.03  2091.06  2121.12  2151.23  2161.88
                             2179.12  2218.84  2533.43  4284.38  4328.16
                             4380.24  4384.44  4398.92  4406.39  4466.78
                             4483.89  4511.33

 Zero-point correction=                           0.138443 (Hartree/Particle)
 Thermal correction to Energy=                    0.145407
 Thermal correction to Enthalpy=                  0.146351
 Thermal correction to Gibbs Free Energy=         0.107500
 Sum of electronic and zero-point Energies=           -325.937914
 Sum of electronic and thermal Energies=              -325.930950
 Sum of electronic and thermal Enthalpies=            -325.930006
 Sum of electronic and thermal Free Energies=         -325.968856

                     E (Thermal)             CV                S
                      KCal/Mol        Cal/Mol-Kelvin    Cal/Mol-Kelvin
 Total                   91.244             24.969             81.768
 Electronic               0.000              0.000              0.000
 Translational            0.889              2.981             39.690
 Rotational               0.889              2.981             27.188
 Vibrational             89.467             19.007             14.890
 Vibration     1          0.615              1.911              2.776
 Vibration     2          0.618              1.904              2.685
 Vibration     3          0.621              1.895              2.582
 Vibration     4          0.639              1.835              2.105
 Vibration     5          0.696              1.663              1.385
 Vibration     6          0.829              1.313              0.733
 Vibration     7          0.921              1.107              0.514
 Vibration     8          0.979              0.992              0.418

 Optimization completed.
    -- Stationary point found.
 Normal termination of Gaussian 16 at Sun Feb 27 18:53:03 2022.
