 Gaussian 16, Revision B.01,
 Gaussian 16:  ES64L-G16RevB.01 20-Dec-2017

 --------------------
 # b3lyp/gen opt freq
 --------------------

 -----------------
 NO, B3LYP/pcseg-2
 -----------------
 Symbolic Z-matrix:
 Charge =  0 Multiplicity = 2

 SCF Done:  E(UB3LYP) =  -129.912485545     A.U. after   15 cycles
 SCF Done:  E(UB3LYP) =  -129.944802819     A.U. after   15 cycles
 SCF Done:  E(UB3LYP) =  -129.945365465     A.U. after   11 cycles
 SCF Done:  E(UB3LYP) =  -129.945365955     A.U. after    9 cycles
 Optimization completed.
    -- Stationary point found.
 Normal termination of Gaussian 16 at Thu Feb  3 12:21:37 2022.

 ------------------------------------------------------------------
 #N Geom=AllCheck Guess=TCheck SCRF=Check GenChk UB3LYP/ChkBas Freq
 ------------------------------------------------------------------

 Structure from the checkpoint file:  "/wrk/irikura/Gau-23472.chk"
 -----------------
 NO, B3LYP/pcseg-2
 -----------------
 Charge =  0 Multiplicity = 2

                         Standard orientation:
 ---------------------------------------------------------------------
 Center     Atomic      Atomic             Coordinates (Angstroms)
 Number     Number       Type             X           Y           Z
 ---------------------------------------------------------------------
      1          7           0        0.000000    0.000000   -0.610864
      2          8           0        0.000000    0.000000    0.534506
 ---------------------------------------------------------------------

 SCF Done:  E(UB3LYP) =  -129.945365955     A.U. after    1 cycles

 Unable to determine electronic state:  partially filled degenerate orbitals.
 Alpha  occ. eigenvalues --  -19.26995 -14.46141  -1.25902  -0.69599  -0.54866
 Alpha  occ. eigenvalues --   -0.52152  -0.49579  -0.22451
 Alpha virt. eigenvalues --   -0.11436   0.14404   0.21829   0.23926   0.24220
 Alpha virt. eigenvalues --    0.31305   0.37518   0.38155   0.49457   0.70399
 Alpha virt. eigenvalues --    1.04219   1.04400   1.21648   1.21741   1.45121

  Beta  occ. eigenvalues --  -19.25911 -14.44522  -1.23822  -0.65985  -0.51201
  Beta  occ. eigenvalues --   -0.47614  -0.47147
  Beta virt. eigenvalues --   -0.09920  -0.05877   0.14750   0.22830   0.24539
  Beta virt. eigenvalues --    0.26037   0.31438   0.38416   0.39670   0.51491
  Beta virt. eigenvalues --    0.70994   1.06906   1.06919   1.22034   1.24872

 Mulliken charges and spin densities:
               1          2
     1  N    0.061429   0.699712
     2  O   -0.061429   0.300288
 Sum of Mulliken charges =  -0.00000   1.00000

 Dipole moment (field-independent basis, Debye):
    X=              0.0000    Y=              0.0000    Z=              0.1211  Tot=              0.1211
 Quadrupole moment (field-independent basis, Debye-Ang):
   XX=            -10.8369   YY=             -9.6793   ZZ=            -11.5388
   XY=              0.0000   XZ=              0.0000   YZ=              0.0000

  Exact polarizability:   7.388  -0.000   7.054  -0.000   0.000  14.070
 Approx polarizability:   8.560  -0.000   9.599  -0.000  -0.000  24.087

                      1
                     SG
 Frequencies --   1972.8664
 Red. masses --     14.8673
 Frc consts  --     34.0940
 IR Inten    --     42.6946

 - Thermochemistry -
 -------------------
 Temperature   298.150 Kelvin.  Pressure   1.00000 Atm.
 Atom     1 has atomic number  7 and mass  14.00307

 Molecular mass:    29.99799 amu.
 Principal axes and moments of inertia in atomic units:
                           1         2         3
     Eigenvalues --     0.00000  34.97856  34.97856
           X            0.00000  -0.00000   1.00000
           Y            0.00000   1.00000   0.00000
           Z            1.00000   0.00000   0.00000
 This molecule is a prolate symmetric top.
 Rotational symmetry number  1.
 Rotational temperature (Kelvin)      2.47620
 Rotational constant (GHZ):          51.595641
 Zero-point vibrational energy      11800.4 (Joules/Mol)
                                    2.82035 (Kcal/Mol)
 Vibrational temperatures:   2838.51
          (Kelvin)

 Zero-point correction=                           0.004495 (Hartree/Particle)
 Thermal correction to Energy=                    0.006856
 Thermal correction to Enthalpy=                  0.007800
 Thermal correction to Gibbs Free Energy=        -0.015489
 Sum of electronic and zero-point Energies=           -129.940871
 Sum of electronic and thermal Energies=              -129.938510
 Sum of electronic and thermal Enthalpies=            -129.937566
 Sum of electronic and thermal Free Energies=         -129.960855

                     E (Thermal)             CV                S
                      KCal/Mol        Cal/Mol-Kelvin    Cal/Mol-Kelvin
 Total                    4.302              4.981             49.016
 Electronic               0.000              0.000              1.377
 Translational            0.889              2.981             36.129
 Rotational               0.592              1.987             11.508
 Vibrational              2.821              0.013              0.002

 Optimization completed.
    -- Stationary point found.
 Normal termination of Gaussian 16 at Thu Feb  3 12:21:49 2022.
