 Gaussian 16, Revision B.01,
 Gaussian 16:  ES64L-G16RevB.01 20-Dec-2017

 --------------------
 # b3lyp/gen opt freq
 --------------------

 ------------------
 NO2, B3LYP/pcseg-2
 ------------------
 Symbolic Z-matrix:
 Charge =  0 Multiplicity = 2

 SCF Done:  E(UB3LYP) =  -205.130697459     A.U. after   14 cycles
 SCF Done:  E(UB3LYP) =  -205.161259439     A.U. after   13 cycles
 SCF Done:  E(UB3LYP) =  -205.162910710     A.U. after   12 cycles
 SCF Done:  E(UB3LYP) =  -205.164092307     A.U. after   12 cycles
 SCF Done:  E(UB3LYP) =  -205.164134918     A.U. after   10 cycles
 SCF Done:  E(UB3LYP) =  -205.164135527     A.U. after    8 cycles
 Optimization completed.
    -- Stationary point found.
 Normal termination of Gaussian 16 at Thu Feb 24 14:37:40 2022.

 ------------------------------------------------------------------
 #N Geom=AllCheck Guess=TCheck SCRF=Check GenChk UB3LYP/ChkBas Freq
 ------------------------------------------------------------------

 Structure from the checkpoint file:  "/wrk/irikura/Gau-17556.chk"
 ------------------
 NO2, B3LYP/pcseg-2
 ------------------
 Charge =  0 Multiplicity = 2

                         Standard orientation:
 ---------------------------------------------------------------------
 Center     Atomic      Atomic             Coordinates (Angstroms)
 Number     Number       Type             X           Y           Z
 ---------------------------------------------------------------------
      1          7           0        0.000000    0.000000    0.321151
      2          8           0       -0.000000    1.098073   -0.140504
      3          8           0       -0.000000   -1.098073   -0.140504
 ---------------------------------------------------------------------

 SCF Done:  E(UB3LYP) =  -205.164135527     A.U. after    1 cycles

 The electronic state is 2-A1.
 Alpha  occ. eigenvalues --  -19.24551 -19.24550 -14.57199  -1.29949  -1.15283
 Alpha  occ. eigenvalues --   -0.68775  -0.59289  -0.58648  -0.58299  -0.39679
 Alpha  occ. eigenvalues --   -0.39244  -0.29831
 Alpha virt. eigenvalues --   -0.09991   0.12054   0.17320   0.21054   0.22620
 Alpha virt. eigenvalues --    0.25694   0.32394   0.33791   0.36390   0.38428
 Alpha virt. eigenvalues --    0.40671   0.42370   0.47931   0.70337   0.77239

  Beta  occ. eigenvalues --  -19.23622 -19.23621 -14.56076  -1.28110  -1.13216
  Beta  occ. eigenvalues --   -0.65551  -0.57237  -0.56466  -0.54743  -0.38555
  Beta  occ. eigenvalues --   -0.35726
  Beta virt. eigenvalues --   -0.15700  -0.08366   0.12890   0.17777   0.22354
  Beta virt. eigenvalues --    0.22890   0.27025   0.32725   0.34321   0.36506
  Beta virt. eigenvalues --    0.39534   0.41031   0.42753   0.51053   0.70906

 Mulliken charges and spin densities:
               1          2
     1  N    0.394494   0.484635
     2  O   -0.197247   0.257682
     3  O   -0.197247   0.257682
 Sum of Mulliken charges =   0.00000   1.00000

 Dipole moment (field-independent basis, Debye):
    X=              0.0000    Y=              0.0000    Z=              0.3480  Tot=              0.3480
 Quadrupole moment (field-independent basis, Debye-Ang):
   XX=            -14.8938   YY=            -18.2064   ZZ=            -15.6861
   XY=             -0.0000   XZ=             -0.0000   YZ=              0.0000

  Exact polarizability:   9.592  -0.000  27.642   0.000  -0.000  11.893
 Approx polarizability:  12.754   0.000  60.510   0.000  -0.000  16.320

                      1                      2                      3
                     A1                     A1                     B2
 Frequencies --    766.9814              1391.1639              1692.3623
 Red. masses --     15.1613                15.3215                14.6221
 Frc consts  --      5.2548                17.4706                24.6745
 IR Inten    --      7.0014                 0.1740               446.5587

 - Thermochemistry -
 -------------------
 Temperature   298.150 Kelvin.  Pressure   1.00000 Atm.
 Atom     1 has atomic number  7 and mass  14.00307

 Molecular mass:    45.99290 amu.
 Principal axes and moments of inertia in atomic units:
                           1         2         3
     Eigenvalues --     7.41271 137.74380 145.15651
           X            0.00000   0.00000   1.00000
           Y            1.00000   0.00000  -0.00000
           Z           -0.00000   1.00000  -0.00000
 This molecule is an asymmetric top.
 Rotational symmetry number  2.
 Rotational temperatures (Kelvin)     11.68452     0.62880     0.59669
 Rotational constants (GHZ):         243.46589    13.10216    12.43307
 Zero-point vibrational energy      23031.2 (Joules/Mol)
                                    5.50458 (Kcal/Mol)
 Vibrational temperatures:   1103.52  2001.57  2434.93
          (Kelvin)

 Zero-point correction=                           0.008772 (Hartree/Particle)
 Thermal correction to Energy=                    0.011703
 Thermal correction to Enthalpy=                  0.012647
 Thermal correction to Gibbs Free Energy=        -0.014576
 Sum of electronic and zero-point Energies=           -205.155363
 Sum of electronic and thermal Energies=              -205.152432
 Sum of electronic and thermal Enthalpies=            -205.151488
 Sum of electronic and thermal Free Energies=         -205.178711

                     E (Thermal)             CV                S
                      KCal/Mol        Cal/Mol-Kelvin    Cal/Mol-Kelvin
 Total                    7.344              6.815             57.296
 Electronic               0.000              0.000              1.377
 Translational            0.889              2.981             37.403
 Rotational               0.889              2.981             18.256
 Vibrational              5.566              0.853              0.260

 Optimization completed.
    -- Stationary point found.
 Normal termination of Gaussian 16 at Thu Feb 24 14:38:23 2022.
