 Gaussian 16, Revision B.01,

 ---------------------------------------
 # b3lyp/gen opt freq CPHF(Grid=OneStep)
 ---------------------------------------

 -----------------------
 nitroxyl, B3LYP/pcseg-2
 -----------------------
 Symbolic Z-matrix:
 Charge =  0 Multiplicity = 2

 SCF Done:  E(UB3LYP) =  -280.341355596     A.U. after   12 cycles
 Optimization completed.
    -- Stationary point found.
 Normal termination of Gaussian 16 at Sun Oct  1 00:37:02 2023.

 ------------------------------------------------------------------
 #N Geom=AllCheck Guess=TCheck SCRF=Check GenChk UB3LYP/ChkBas Freq
 ------------------------------------------------------------------

 Structure from the checkpoint file:  "no3.chk"
 -----------------------
 nitroxyl, B3LYP/pcseg-2
 -----------------------
 Charge =  0 Multiplicity = 2

 SCF Done:  E(UB3LYP) =  -280.341355596     A.U. after    1 cycles

  Exact polarizability:  32.649   0.000  32.650   0.000   0.000  11.940
 Approx polarizability:  73.738   0.000  73.738  -0.000  -0.000  16.083

                      1                      2                      3
                     ?A                     ?A                     A2"
 Frequencies --    229.2700               229.2848               805.1666
 Red. masses --     15.1587                15.1587                14.4084
 Frc consts  --      0.4695                 0.4695                 5.5035
 IR Inten    --     17.2819                17.2789                11.5185

                      4                      5                      6
                     ?A                     ?A                     ?B
 Frequencies --   1102.6223              1102.6245              1129.9822
 Red. masses --     15.1619                15.1619                15.9949
 Frc consts  --     10.8607                10.8607                12.0330
 IR Inten    --      0.4866                 0.4871                 0.0000

 - Thermochemistry -
 -------------------
 Temperature   298.150 Kelvin.  Pressure   1.00000 Atm.
 Atom     1 has atomic number  7 and mass  14.00307

 Molecular mass:    61.98782 amu.
 Principal axes and moments of inertia in atomic units:
                           1         2         3
     Eigenvalues --   129.95031 129.95031 259.90062
           X            0.38268   0.92388   0.00000
           Y            0.92388  -0.38268   0.00000
           Z            0.00000  -0.00000   1.00000
 This molecule is an oblate symmetric top.
 Rotational symmetry number  6.
 Rotational temperatures (Kelvin)      0.66652     0.66652     0.33326
 Rotational constants (GHZ):          13.88793    13.88793     6.94397
 Zero-point vibrational energy      27507.8 (Joules/Mol)
                                    6.57453 (Kcal/Mol)
 Warning -- explicit consideration of   2 degrees of freedom as
           vibrations may cause significant error
 Vibrational temperatures:    329.87   329.89  1158.46  1586.43  1586.43
          (Kelvin)           1625.79

 Zero-point correction=                           0.010477 (Hartree/Particle)
 Thermal correction to Energy=                    0.014491
 Thermal correction to Enthalpy=                  0.015435
 Thermal correction to Gibbs Free Energy=        -0.014622
 Sum of electronic and zero-point Energies=           -280.330878
 Sum of electronic and thermal Energies=              -280.326865
 Sum of electronic and thermal Enthalpies=            -280.325921
 Sum of electronic and thermal Free Energies=         -280.355977

                     E (Thermal)             CV                S
                      KCal/Mol        Cal/Mol-Kelvin    Cal/Mol-Kelvin
 Total                    9.093             11.007             63.260
 Electronic               0.000              0.000              1.377
 Translational            0.889              2.981             38.292
 Rotational               0.889              2.981             19.439
 Vibrational              7.316              5.046              4.151
 Vibration     1          0.652              1.796              1.885
 Vibration     2          0.652              1.796              1.885

 Optimization completed.
    -- Stationary point found.
 Normal termination of Gaussian 16 at Sun Oct  1 00:37:55 2023.
 Gaussian 16:  ES64L-G16RevB.01 20-Dec-2017

 ---------------------------------
 # rohf/gen geom=check guess=check
 ---------------------------------

 --------------------------
 nitroxyl, ROHF/cc-pVTZ-F12
 --------------------------
 Structure from the checkpoint file:  "no3.chk"
 Charge =  0 Multiplicity = 2

                         Standard orientation:
 ---------------------------------------------------------------------
 Center     Atomic      Atomic             Coordinates (Angstroms)
 Number     Number       Type             X           Y           Z
 ---------------------------------------------------------------------
      1          7           0        0.000000    0.000000    0.000000
      2          8           0       -0.000000    1.231553    0.000000
      3          8           0       -1.066556   -0.615777    0.000000
      4          8           0        1.066556   -0.615777    0.000000
 ---------------------------------------------------------------------

 SCF Done:  E(ROHF) =  -278.879489748     A.U. after   11 cycles

 Unable to determine electronic state:  an orbital has unidentified symmetry.
 Alpha  occ. eigenvalues --  -20.70783 -20.70783 -20.70780 -15.98260  -1.74137
 Alpha  occ. eigenvalues --   -1.47343  -1.47343  -0.94546  -0.84224  -0.82184
 Alpha  occ. eigenvalues --   -0.82184  -0.56784  -0.56784  -0.54214  -0.54214
 Alpha  occ. eigenvalues --   -0.23910
 Alpha virt. eigenvalues --    0.04828   0.06362   0.08825   0.08825   0.10591
 Alpha virt. eigenvalues --    0.16143   0.16143   0.16715   0.16715   0.17138
 Alpha virt. eigenvalues --    0.21566   0.22100   0.22100   0.23355   0.28831

 Mulliken charges and spin densities:
               1          2
     1  N    0.673874   0.021681
     2  O   -0.224625   0.326106
     3  O   -0.224625   0.326106
     4  O   -0.224625   0.326106
 Sum of Mulliken charges =  -0.00000   1.00000

 Dipole moment (field-independent basis, Debye):
    X=             -0.0000    Y=             -0.0000    Z=              0.0000  Tot=              0.0000
 Quadrupole moment (field-independent basis, Debye-Ang):
   XX=            -22.9518   YY=            -22.9518   ZZ=            -20.1577
   XY=             -0.0000   XZ=             -0.0000   YZ=             -0.0000

 Normal termination of Gaussian 16 at Sun Oct  1 00:38:06 2023.
