 Gaussian 16, Revision B.01,
 Gaussian 16:  ES64L-G16RevB.01 20-Dec-2017

 --------------------
 # b3lyp/gen opt freq
 --------------------

 -----------------------
 nitroxyl, B3LYP/pcseg-2
 -----------------------
 Symbolic Z-matrix:
 Charge =  0 Multiplicity = 2

 SCF Done:  E(UB3LYP) =  -280.341343024     A.U. after   12 cycles
 SCF Done:  E(UB3LYP) =  -280.341355597     A.U. after    6 cycles
 Optimization completed.
    -- Stationary point found.
 Normal termination of Gaussian 16 at Thu Jun 16 17:20:44 2022.

 ------------------------------------------------------------------
 #N Geom=AllCheck Guess=TCheck SCRF=Check GenChk UB3LYP/ChkBas Freq
 ------------------------------------------------------------------

 Structure from the checkpoint file:  "/wrk/irikura/Gau-17118.chk"
 -----------------------
 nitroxyl, B3LYP/pcseg-2
 -----------------------
 Charge =  0 Multiplicity = 2

                         Standard orientation:
 ---------------------------------------------------------------------
 Center     Atomic      Atomic             Coordinates (Angstroms)
 Number     Number       Type             X           Y           Z
 ---------------------------------------------------------------------
      1          7           0        0.000000    0.000000    0.000000
      2          8           0        0.000000    1.231553   -0.000000
      3          8           0        1.066556   -0.615777   -0.000000
      4          8           0       -1.066556   -0.615777   -0.000000
 ---------------------------------------------------------------------

 SCF Done:  E(UB3LYP) =  -280.341355597     A.U. after    1 cycles

 The electronic state is 2-A2'.
 Alpha  occ. eigenvalues --  -19.26058 -19.26058 -19.26056 -14.66767  -1.36557
 Alpha  occ. eigenvalues --   -1.14843  -1.14843  -0.69823  -0.64331  -0.62161
 Alpha  occ. eigenvalues --   -0.62161  -0.44748  -0.44748  -0.40415  -0.40415
 Alpha  occ. eigenvalues --   -0.38399
 Alpha virt. eigenvalues --   -0.11385   0.07074   0.17635   0.17635   0.20506
 Alpha virt. eigenvalues --    0.22701   0.26445   0.26445   0.32950   0.35460
 Alpha virt. eigenvalues --    0.35460   0.38078   0.38078   0.43167   0.43167

  Beta  occ. eigenvalues --  -19.24977 -19.24977 -19.24977 -14.66870  -1.35499
  Beta  occ. eigenvalues --   -1.12777  -1.12777  -0.68027  -0.64138  -0.60154
  Beta  occ. eigenvalues --   -0.60154  -0.39330  -0.39330  -0.38649  -0.38649
  Beta virt. eigenvalues --   -0.25324  -0.10941   0.07651   0.18280   0.18280
  Beta virt. eigenvalues --    0.20898   0.22860   0.26904   0.26904   0.33181
  Beta virt. eigenvalues --    0.35687   0.35687   0.39915   0.39915   0.43355

 Mulliken charges and spin densities:
               1          2
     1  N    0.662029  -0.089203
     2  O   -0.220676   0.363068
     3  O   -0.220676   0.363068
     4  O   -0.220676   0.363068
 Sum of Mulliken charges =  -0.00000   1.00000

 Dipole moment (field-independent basis, Debye):
    X=              0.0000    Y=              0.0000    Z=             -0.0000  Tot=              0.0000
 Quadrupole moment (field-independent basis, Debye-Ang):
   XX=            -22.9271   YY=            -22.9271   ZZ=            -20.1625
   XY=             -0.0000   XZ=              0.0000   YZ=             -0.0000

  Exact polarizability:  32.649  -0.000  32.650   0.000  -0.000  11.940
 Approx polarizability:  73.738  -0.000  73.738   0.000   0.000  16.083

                      1                      2                      3
                     E'                     E'                     A2"
 Frequencies --    229.1642               229.4015               805.1703
 Red. masses --     15.1586                15.1587                14.4084
 Frc consts  --      0.4690                 0.4700                 5.5035
 IR Inten    --     17.2910                17.2764                11.5187

                      4                      5                      6
                     E'                     E'                     A1'
 Frequencies --   1102.5724              1102.6198              1129.9890
 Red. masses --     15.1620                15.1618                15.9949
 Frc consts  --     10.8598                10.8606                12.0332
 IR Inten    --      0.4851                 0.4871                 0.0000

 - Thermochemistry -
 -------------------
 Temperature   298.150 Kelvin.  Pressure   1.00000 Atm.
 Atom     1 has atomic number  7 and mass  14.00307

 Molecular mass:    61.98782 amu.
 Principal axes and moments of inertia in atomic units:
                           1         2         3
     Eigenvalues --   129.95026 129.95026 259.90051
           X            0.70711   0.70711   0.00000
           Y           -0.70711   0.70711   0.00000
           Z            0.00000  -0.00000   1.00000
 This molecule is an oblate symmetric top.
 Rotational symmetry number  6.
 Rotational temperatures (Kelvin)      0.66652     0.66652     0.33326
 Rotational constants (GHZ):          13.88794    13.88794     6.94397
 Zero-point vibrational energy      27507.6 (Joules/Mol)
                                    6.57448 (Kcal/Mol)
 Warning -- explicit consideration of   2 degrees of freedom as
           vibrations may cause significant error
 Vibrational temperatures:    329.72   330.06  1158.46  1586.36  1586.42
          (Kelvin)           1625.80

 Zero-point correction=                           0.010477 (Hartree/Particle)
 Thermal correction to Energy=                    0.014491
 Thermal correction to Enthalpy=                  0.015435
 Thermal correction to Gibbs Free Energy=        -0.014622
 Sum of electronic and zero-point Energies=           -280.330878
 Sum of electronic and thermal Energies=              -280.326865
 Sum of electronic and thermal Enthalpies=            -280.325921
 Sum of electronic and thermal Free Energies=         -280.355978

                     E (Thermal)             CV                S
                      KCal/Mol        Cal/Mol-Kelvin    Cal/Mol-Kelvin
 Total                    9.093             11.007             63.260
 Electronic               0.000              0.000              1.377
 Translational            0.889              2.981             38.292
 Rotational               0.889              2.981             19.439
 Vibrational              7.316              5.046              4.151
 Vibration     1          0.652              1.796              1.885
 Vibration     2          0.652              1.796              1.884

 Optimization completed.
    -- Stationary point found.
 Normal termination of Gaussian 16 at Thu Jun 16 17:20:58 2022.
