 Gaussian 16, Revision B.01,
 Gaussian 16:  ES64L-G16RevB.01 20-Dec-2017

 --------------------
 # b3lyp/gen opt freq
 --------------------

 --------------------------------------------
 Bicyclo[2.2.1]hepta-2,5-diene, B3LYP/pcseg-2
 --------------------------------------------
 Symbolic Z-matrix:
 Charge =  0 Multiplicity = 1

 SCF Done:  E(RB3LYP) =  -271.580855110     A.U. after   12 cycles
 SCF Done:  E(RB3LYP) =  -271.580874278     A.U. after    7 cycles
 Optimization completed.
    -- Stationary point found.
 Normal termination of Gaussian 16 at Fri Jun 17 20:28:13 2022.

 ------------------------------------------------------------------
 #N Geom=AllCheck Guess=TCheck SCRF=Check GenChk RB3LYP/ChkBas Freq
 ------------------------------------------------------------------

 Structure from the checkpoint file:  "/wrk/irikura/Gau-26153.chk"
 --------------------------------------------
 Bicyclo[2.2.1]hepta-2,5-diene, B3LYP/pcseg-2
 --------------------------------------------
 Charge =  0 Multiplicity = 1

                         Standard orientation:
 ---------------------------------------------------------------------
 Center     Atomic      Atomic             Coordinates (Angstroms)
 Number     Number       Type             X           Y           Z
 ---------------------------------------------------------------------
      1          6           0        0.000000    0.000000    1.354453
      2          6           0        0.000000    1.120566    0.272069
      3          6           0       -0.000000   -1.120566    0.272069
      4          6           0        1.240335    0.664701   -0.520086
      5          6           0        1.240335   -0.664701   -0.520086
      6          6           0       -1.240335    0.664701   -0.520086
      7          6           0       -1.240335   -0.664701   -0.520086
      8          1           0       -0.896743    0.000000    1.973129
      9          1           0        0.896743   -0.000000    1.973129
     10          1           0        0.000000    2.153356    0.608267
     11          1           0       -0.000000   -2.153356    0.608267
     12          1           0        1.927621    1.331159   -1.018068
     13          1           0        1.927621   -1.331159   -1.018068
     14          1           0       -1.927621    1.331159   -1.018068
     15          1           0       -1.927621   -1.331159   -1.018068
 ---------------------------------------------------------------------

 SCF Done:  E(RB3LYP) =  -271.580874278     A.U. after    1 cycles

 The electronic state is 1-A1.
 Alpha  occ. eigenvalues --  -10.18456 -10.18456 -10.17319 -10.16623 -10.16623
 Alpha  occ. eigenvalues --  -10.16528 -10.16528  -0.89023  -0.75012  -0.70846
 Alpha  occ. eigenvalues --   -0.69545  -0.56686  -0.55935  -0.52538  -0.50377
 Alpha  occ. eigenvalues --   -0.48279  -0.42048  -0.39024  -0.37359  -0.37077
 Alpha  occ. eigenvalues --   -0.35266  -0.33705  -0.33176  -0.26083  -0.23108
 Alpha virt. eigenvalues --   -0.02104   0.01840   0.02775   0.04285   0.04627
 Alpha virt. eigenvalues --    0.05212   0.07227   0.07345   0.07747   0.07908
 Alpha virt. eigenvalues --    0.11428   0.14707   0.15270   0.16223   0.17798

 Mulliken charges:
               1
     1  C   -0.002242
     2  C   -0.038220
     3  C   -0.038220
     4  C   -0.033409
     5  C   -0.033409
     6  C   -0.033409
     7  C   -0.033409
     8  H    0.049239
     9  H    0.049239
    10  H    0.008695
    11  H    0.008695
    12  H    0.024113
    13  H    0.024113
    14  H    0.024113
    15  H    0.024113
 Sum of Mulliken charges =  -0.00000

 Dipole moment (field-independent basis, Debye):
    X=              0.0000    Y=              0.0000    Z=              0.0854  Tot=              0.0854
 Quadrupole moment (field-independent basis, Debye-Ang):
   XX=            -43.1812   YY=            -39.3788   ZZ=            -43.3965
   XY=             -0.0000   XZ=             -0.0000   YZ=             -0.0000

  Exact polarizability:  73.056   0.000  79.478   0.000   0.000  63.914
 Approx polarizability: 102.541  -0.000 140.260   0.000  -0.000  92.640

                      1                      2                      3
                     A1                     A2                     B1
 Frequencies --    426.9421               456.8725               507.8244
 Red. masses --      2.1141                 3.1753                 1.6680
 Frc consts  --      0.2270                 0.3905                 0.2534
 IR Inten    --      6.5901                 0.0000                 7.5012

                      4                      5                      6
                     B2                     B1                     A2
 Frequencies --    550.9886               677.8711               725.1532
 Red. masses --      2.7338                 1.4478                 4.8000
 Frc consts  --      0.4890                 0.3920                 1.4871
 IR Inten    --      1.4995                37.3949                 0.0000

                      7                      8                      9
                     A1                     A1                     B2
 Frequencies --    750.4487               785.1854               804.8408
 Red. masses --      1.7814                 5.8571                 2.7808
 Frc consts  --      0.5911                 2.1276                 1.0613
 IR Inten    --     59.5740                 0.0001                 7.1604

                     10                     11                     12
                     A1                     B2                     B1
 Frequencies --    881.5076               887.3769               892.2487
 Red. masses --      2.1901                 2.8273                 3.2552
 Frc consts  --      1.0027                 1.3117                 1.5269
 IR Inten    --     11.2377                 1.8246                 2.1814

                     13                     14                     15
                     A2                     A2                     B2
 Frequencies --    899.2144               943.0100               945.8202
 Red. masses --      2.0027                 1.3627                 1.9616
 Frc consts  --      0.9541                 0.7140                 1.0339
 IR Inten    --      0.0000                 0.0000                 2.1559

                     16                     17                     18
                     A1                     B2                     B1
 Frequencies --    947.5759               972.5222              1040.1605
 Red. masses --      2.5605                 1.6736                 1.3464
 Frc consts  --      1.3546                 0.9326                 0.8583
 IR Inten    --      3.4127                 1.6804                 0.6484

                     19                     20                     21
                     B1                     A1                     A2
 Frequencies --   1087.7422              1131.0332              1132.0526
 Red. masses --      1.1174                 1.3686                 1.0521
 Frc consts  --      0.7790                 1.0315                 0.7944
 IR Inten    --      0.4281                 0.2929                 0.0000

                     22                     23                     24
                     B2                     B1                     A1
 Frequencies --   1172.3379              1233.0070              1256.3394
 Red. masses --      1.7698                 1.4270                 1.4965
 Frc consts  --      1.4331                 1.2782                 1.3917
 IR Inten    --      1.3475                 2.7523                 4.1875

                     25                     26                     27
                     A2                     B2                     A2
 Frequencies --   1272.2895              1282.1175              1294.2268
 Red. masses --      1.2896                 1.3170                 1.6185
 Frc consts  --      1.2300                 1.2756                 1.5973
 IR Inten    --      0.0000                 0.1458                 0.0000

                     28                     29                     30
                     B2                     A1                     B1
 Frequencies --   1345.3698              1499.2150              1606.7786
 Red. masses --      1.5883                 1.1089                 5.2090
 Frc consts  --      1.6938                 1.4686                 7.9235
 IR Inten    --     26.2950                 1.7426                12.6496

                     31                     32                     33
                     A1                     A1                     B1
 Frequencies --   1648.0092              3053.6796              3109.6879
 Red. masses --      6.1531                 1.0566                 1.1095
 Frc consts  --      9.8461                 5.8049                 6.3215
 IR Inten    --      0.4122                46.0704                34.1731

                     34                     35                     36
                     B2                     A1                     A2
 Frequencies --   3118.1144              3120.4612              3202.8332
 Red. masses --      1.0877                 1.0899                 1.0858
 Frc consts  --      6.2307                 6.2530                 6.5623
 IR Inten    --     59.7440                 8.3456                 0.0000

                     37                     38                     39
                     B2                     B1                     A1
 Frequencies --   3204.4457              3226.9264              3229.2727
 Red. masses --      1.0862                 1.1064                 1.1070
 Frc consts  --      6.5715                 6.7878                 6.8016
 IR Inten    --     11.6256                15.8615                 7.0969

 - Thermochemistry -
 -------------------
 Temperature   298.150 Kelvin.  Pressure   1.00000 Atm.
 Atom     1 has atomic number  6 and mass  12.00000

 Molecular mass:    92.06260 amu.
 Principal axes and moments of inertia in atomic units:
                           1         2         3
     Eigenvalues --   419.12470 499.87067 565.22229
           X            1.00000   0.00000   0.00000
           Y           -0.00000   1.00000   0.00000
           Z            0.00000  -0.00000   1.00000
 This molecule is an asymmetric top.
 Rotational symmetry number  2.
 Rotational temperatures (Kelvin)      0.20665     0.17327     0.15324
 Rotational constants (GHZ):           4.30598     3.61042     3.19298
 Zero-point vibrational energy     336877.4 (Joules/Mol)
                                   80.51563 (Kcal/Mol)
 Warning -- explicit consideration of   4 degrees of freedom as
           vibrations may cause significant error
 Vibrational temperatures:    614.27   657.34   730.65   792.75   975.31
          (Kelvin)           1043.33  1079.73  1129.71  1157.99  1268.29
                             1276.74  1283.75  1293.77  1356.78  1360.82
                             1363.35  1399.24  1496.56  1565.02  1627.30
                             1628.77  1686.73  1774.02  1807.59  1830.54
                             1844.68  1862.10  1935.69  2157.04  2311.80
                             2371.12  4393.56  4474.15  4486.27  4489.65
                             4608.16  4610.48  4642.83  4646.20

 Zero-point correction=                           0.128310 (Hartree/Particle)
 Thermal correction to Energy=                    0.133177
 Thermal correction to Enthalpy=                  0.134121
 Thermal correction to Gibbs Free Energy=         0.100852
 Sum of electronic and zero-point Energies=           -271.452564
 Sum of electronic and thermal Energies=              -271.447698
 Sum of electronic and thermal Enthalpies=            -271.446754
 Sum of electronic and thermal Free Energies=         -271.480022

                     E (Thermal)             CV                S
                      KCal/Mol        Cal/Mol-Kelvin    Cal/Mol-Kelvin
 Total                   83.570             21.065             70.020
 Electronic               0.000              0.000              0.000
 Translational            0.889              2.981             39.471
 Rotational               0.889              2.981             24.896
 Vibrational             81.792             15.103              5.652
 Vibration     1          0.789              1.412              0.869
 Vibration     2          0.815              1.346              0.775
 Vibration     3          0.863              1.233              0.639
 Vibration     4          0.906              1.138              0.542

 Optimization completed.
    -- Stationary point found.
 Normal termination of Gaussian 16 at Fri Jun 17 20:32:18 2022.
