 Gaussian 16, Revision B.01,

 ---------------------------------------
 # b3lyp/gen opt freq CPHF(Grid=OneStep)
 ---------------------------------------

 --------------------------------------------
 Bicyclo[2.2.1]hepta-2,5-diene, B3LYP/pcseg-2
 --------------------------------------------
 Symbolic Z-matrix:
 Charge =  0 Multiplicity = 1

 SCF Done:  E(RB3LYP) =  -271.580874279     A.U. after   12 cycles
 Optimization completed.
    -- Stationary point found.
 Normal termination of Gaussian 16 at Sat Sep 30 16:07:25 2023.

 ------------------------------------------------------------------
 #N Geom=AllCheck Guess=TCheck SCRF=Check GenChk RB3LYP/ChkBas Freq
 ------------------------------------------------------------------

 Structure from the checkpoint file:  "norbornadiene.chk"
 --------------------------------------------
 Bicyclo[2.2.1]hepta-2,5-diene, B3LYP/pcseg-2
 --------------------------------------------
 Charge =  0 Multiplicity = 1

 SCF Done:  E(RB3LYP) =  -271.580874279     A.U. after    1 cycles

  Exact polarizability:  73.056   0.000  79.477   0.000   0.000  63.916
 Approx polarizability: 102.541   0.000 140.260   0.000   0.000  92.640

                      1                      2                      3
                     A1                     A2                     B1
 Frequencies --    426.9332               456.8733               507.8177
 Red. masses --      2.1140                 3.1754                 1.6680
 Frc consts  --      0.2270                 0.3905                 0.2534
 IR Inten    --      6.5890                 0.0000                 7.5017

                      4                      5                      6
                     B2                     B1                     A2
 Frequencies --    550.9880               677.8660               725.1531
 Red. masses --      2.7338                 1.4478                 4.8000
 Frc consts  --      0.4890                 0.3920                 1.4871
 IR Inten    --      1.4994                37.3924                 0.0000

                      7                      8                      9
                     A1                     A1                     B2
 Frequencies --    750.4499               785.1902               804.8393
 Red. masses --      1.7814                 5.8571                 2.7808
 Frc consts  --      0.5911                 2.1276                 1.0613
 IR Inten    --     59.5724                 0.0001                 7.1608

                     10                     11                     12
                     A1                     B2                     B1
 Frequencies --    881.5068               887.3766               892.2496
 Red. masses --      2.1901                 2.8273                 3.2552
 Frc consts  --      1.0027                 1.3117                 1.5269
 IR Inten    --     11.2380                 1.8240                 2.1819

                     13                     14                     15
                     A2                     A2                     B2
 Frequencies --    899.2148               943.0113               945.8197
 Red. masses --      2.0028                 1.3627                 1.9616
 Frc consts  --      0.9541                 0.7140                 1.0339
 IR Inten    --      0.0000                 0.0000                 2.1556

                     16                     17                     18
                     A1                     B2                     B1
 Frequencies --    947.5764               972.5213              1040.1739
 Red. masses --      2.5605                 1.6736                 1.3464
 Frc consts  --      1.3546                 0.9326                 0.8583
 IR Inten    --      3.4118                 1.6805                 0.6477

                     19                     20                     21
                     B1                     A1                     A2
 Frequencies --   1087.7441              1131.0343              1132.0548
 Red. masses --      1.1175                 1.3686                 1.0521
 Frc consts  --      0.7790                 1.0315                 0.7944
 IR Inten    --      0.4280                 0.2927                 0.0000

                     22                     23                     24
                     B2                     B1                     A1
 Frequencies --   1172.3359              1233.0081              1256.3366
 Red. masses --      1.7698                 1.4270                 1.4965
 Frc consts  --      1.4331                 1.2782                 1.3917
 IR Inten    --      1.3468                 2.7525                 4.1886

                     25                     26                     27
                     A2                     B2                     A2
 Frequencies --   1272.2900              1282.1172              1294.2280
 Red. masses --      1.2896                 1.3170                 1.6185
 Frc consts  --      1.2300                 1.2756                 1.5973
 IR Inten    --      0.0000                 0.1459                 0.0000

                     28                     29                     30
                     B2                     A1                     B1
 Frequencies --   1345.3698              1499.2139              1606.7782
 Red. masses --      1.5883                 1.1089                 5.2090
 Frc consts  --      1.6938                 1.4685                 7.9236
 IR Inten    --     26.2948                 1.7420                12.6506

                     31                     32                     33
                     A1                     A1                     B1
 Frequencies --   1648.0065              3053.6792              3109.6880
 Red. masses --      6.1531                 1.0566                 1.1095
 Frc consts  --      9.8460                 5.8049                 6.3215
 IR Inten    --      0.4124                46.0684                34.1698

                     34                     35                     36
                     B2                     A1                     A2
 Frequencies --   3118.1150              3120.4610              3202.8295
 Red. masses --      1.0877                 1.0899                 1.0858
 Frc consts  --      6.2307                 6.2530                 6.5623
 IR Inten    --     59.7418                 8.3459                 0.0000

                     37                     38                     39
                     B2                     B1                     A1
 Frequencies --   3204.4417              3226.9228              3229.2688
 Red. masses --      1.0862                 1.1064                 1.1070
 Frc consts  --      6.5715                 6.7878                 6.8015
 IR Inten    --     11.6270                15.8623                 7.0973

 - Thermochemistry -
 -------------------
 Temperature   298.150 Kelvin.  Pressure   1.00000 Atm.
 Atom     1 has atomic number  6 and mass  12.00000

 Molecular mass:    92.06260 amu.
 Principal axes and moments of inertia in atomic units:
                           1         2         3
     Eigenvalues --   419.12473 499.87063 565.22230
           X            1.00000  -0.00000   0.00000
           Y            0.00000   1.00000   0.00000
           Z            0.00000  -0.00000   1.00000
 This molecule is an asymmetric top.
 Rotational symmetry number  2.
 Rotational temperatures (Kelvin)      0.20665     0.17327     0.15324
 Rotational constants (GHZ):           4.30598     3.61042     3.19298
 Zero-point vibrational energy     336877.3 (Joules/Mol)
                                   80.51560 (Kcal/Mol)
 Warning -- explicit consideration of   4 degrees of freedom as
           vibrations may cause significant error
 Vibrational temperatures:    614.26   657.34   730.64   792.75   975.30
          (Kelvin)           1043.33  1079.73  1129.71  1157.98  1268.29
                             1276.74  1283.75  1293.77  1356.78  1360.82
                             1363.35  1399.24  1496.58  1565.02  1627.31
                             1628.77  1686.73  1774.02  1807.59  1830.54
                             1844.68  1862.11  1935.69  2157.03  2311.80
                             2371.11  4393.56  4474.15  4486.27  4489.65
                             4608.16  4610.48  4642.82  4646.20

 Zero-point correction=                           0.128310 (Hartree/Particle)
 Thermal correction to Energy=                    0.133176
 Thermal correction to Enthalpy=                  0.134121
 Thermal correction to Gibbs Free Energy=         0.100852
 Sum of electronic and zero-point Energies=           -271.452564
 Sum of electronic and thermal Energies=              -271.447698
 Sum of electronic and thermal Enthalpies=            -271.446754
 Sum of electronic and thermal Free Energies=         -271.480022

                     E (Thermal)             CV                S
                      KCal/Mol        Cal/Mol-Kelvin    Cal/Mol-Kelvin
 Total                   83.570             21.065             70.020
 Electronic               0.000              0.000              0.000
 Translational            0.889              2.981             39.471
 Rotational               0.889              2.981             24.896
 Vibrational             81.792             15.103              5.652
 Vibration     1          0.789              1.412              0.869
 Vibration     2          0.815              1.346              0.775
 Vibration     3          0.863              1.233              0.639
 Vibration     4          0.906              1.138              0.542

 Optimization completed.
    -- Stationary point found.
 Normal termination of Gaussian 16 at Sat Sep 30 16:23:20 2023.
 Gaussian 16:  ES64L-G16RevB.01 20-Dec-2017

 ---------------------------------
 # rohf/gen geom=check guess=check
 ---------------------------------

 -----------------------------------------------
 Bicyclo[2.2.1]hepta-2,5-diene, ROHF/cc-pVTZ-F12
 -----------------------------------------------
 Structure from the checkpoint file:  "norbornadiene.chk"
 Charge =  0 Multiplicity = 1

                         Standard orientation:
 ---------------------------------------------------------------------
 Center     Atomic      Atomic             Coordinates (Angstroms)
 Number     Number       Type             X           Y           Z
 ---------------------------------------------------------------------
      1          6           0        0.000000    0.000000    1.354453
      2          6           0        0.000000    1.120566    0.272069
      3          6           0       -0.000000   -1.120566    0.272069
      4          6           0        1.240335    0.664701   -0.520086
      5          6           0        1.240335   -0.664701   -0.520086
      6          6           0       -1.240335    0.664701   -0.520086
      7          6           0       -1.240335   -0.664701   -0.520086
      8          1           0       -0.896743    0.000000    1.973129
      9          1           0        0.896743   -0.000000    1.973129
     10          1           0        0.000000    2.153356    0.608267
     11          1           0       -0.000000   -2.153356    0.608267
     12          1           0        1.927621    1.331159   -1.018068
     13          1           0        1.927621   -1.331159   -1.018068
     14          1           0       -1.927621    1.331159   -1.018068
     15          1           0       -1.927621   -1.331159   -1.018068
 ---------------------------------------------------------------------

 SCF Done:  E(ROHF) =  -269.756292001     A.U. after   11 cycles

 The electronic state is 1-A1.
 Alpha  occ. eigenvalues --  -11.23534 -11.23534 -11.22307 -11.21994 -11.21992
 Alpha  occ. eigenvalues --  -11.21815 -11.21814  -1.18432  -1.01664  -0.95748
 Alpha  occ. eigenvalues --   -0.94368  -0.77367  -0.76040  -0.70331  -0.68797
 Alpha  occ. eigenvalues --   -0.64994  -0.58003  -0.52941  -0.52202  -0.51375
 Alpha  occ. eigenvalues --   -0.49088  -0.46050  -0.45961  -0.36133  -0.32031
 Alpha virt. eigenvalues --    0.04297   0.05040   0.05380   0.05422   0.06764
 Alpha virt. eigenvalues --    0.06999   0.07044   0.08776   0.10078   0.10185
 Alpha virt. eigenvalues --    0.11611   0.11940   0.12232   0.12317   0.12707

 Mulliken charges and spin densities:
               1          2
     1  C   -0.220067   0.000000
     2  C    0.128030   0.000000
     3  C    0.128030   0.000000
     4  C   -0.258961   0.000000
     5  C   -0.258961   0.000000
     6  C   -0.258961   0.000000
     7  C   -0.258961   0.000000
     8  H    0.084050  -0.000000
     9  H    0.084050  -0.000000
    10  H    0.085087   0.000000
    11  H    0.085087   0.000000
    12  H    0.165394   0.000000
    13  H    0.165394   0.000000
    14  H    0.165394   0.000000
    15  H    0.165394   0.000000
 Sum of Mulliken charges =  -0.00000   0.00000

 Dipole moment (field-independent basis, Debye):
    X=              0.0000    Y=              0.0000    Z=              0.0505  Tot=              0.0505
 Quadrupole moment (field-independent basis, Debye-Ang):
   XX=            -43.5275   YY=            -38.9234   ZZ=            -43.6943
   XY=              0.0000   XZ=              0.0000   YZ=             -0.0000

 Normal termination of Gaussian 16 at Sat Sep 30 16:26:51 2023.
