 Gaussian 16, Revision B.01,

 ---------------------------------------
 # b3lyp/gen opt freq CPHF(Grid=OneStep)
 ---------------------------------------

 -----------------------
 n-propyl, B3LYP/pcseg-2
 -----------------------
 Symbolic Z-matrix:
 Charge =  0 Multiplicity = 2

 SCF Done:  E(UB3LYP) =  -118.523766278     A.U. after   12 cycles
 Optimization completed.
    -- Stationary point found.
 Normal termination of Gaussian 16 at Fri Sep 29 04:12:50 2023.

 ------------------------------------------------------------------
 #N Geom=AllCheck Guess=TCheck SCRF=Check GenChk UB3LYP/ChkBas Freq
 ------------------------------------------------------------------

 Structure from the checkpoint file:  "nPr.chk"
 -----------------------
 n-propyl, B3LYP/pcseg-2
 -----------------------
 Charge =  0 Multiplicity = 2

 SCF Done:  E(UB3LYP) =  -118.523766278     A.U. after    1 cycles

  Exact polarizability:  43.552  -1.058  38.162  -0.515   0.081  34.226
 Approx polarizability:  51.430  -1.615  50.800  -0.866  -0.057  47.162

                      1                      2                      3
                      A                      A                      A
 Frequencies --     99.4331               243.6422               374.0125
 Red. masses --      1.0322                 1.1082                 1.9689
 Frc consts  --      0.0060                 0.0388                 0.1623
 IR Inten    --      0.4185                 0.0305                 2.1163

                      4                      5                      6
                      A                      A                      A
 Frequencies --    495.5289               758.1222               879.4664
 Red. masses --      1.2583                 1.1892                 2.1380
 Frc consts  --      0.1820                 0.4027                 0.9743
 IR Inten    --     53.5978                 0.8721                 0.1369

                      7                      8                      9
                      A                      A                      A
 Frequencies --    925.3835              1051.3579              1083.2006
 Red. masses --      1.2661                 1.3867                 2.4081
 Frc consts  --      0.6388                 0.9031                 1.6647
 IR Inten    --      1.2601                 1.1090                 0.2085

                     10                     11                     12
                      A                      A                      A
 Frequencies --   1172.3331              1268.3366              1363.2795
 Red. masses --      1.8266                 1.1956                 1.4677
 Frc consts  --      1.4791                 1.1332                 1.6071
 IR Inten    --      0.1749                 0.1289                 2.6911

                     13                     14                     15
                      A                      A                      A
 Frequencies --   1410.7181              1464.6238              1467.4229
 Red. masses --      1.2309                 1.0801                 1.1544
 Frc consts  --      1.4432                 1.3651                 1.4646
 IR Inten    --      2.0085                 1.0909                 3.5329

                     16                     17                     18
                      A                      A                      A
 Frequencies --   1497.3721              1503.6946              2922.8916
 Red. masses --      1.0399                 1.0572                 1.0743
 Frc consts  --      1.3737                 1.4083                 5.4075
 IR Inten    --      7.1481                 4.1941                31.1631

                     19                     20                     21
                      A                      A                      A
 Frequencies --   3006.6054              3029.2128              3089.4286
 Red. masses --      1.0816                 1.0348                 1.1017
 Frc consts  --      5.7606                 5.5945                 6.1956
 IR Inten    --     21.2164                28.7225                36.0357

                     22                     23                     24
                      A                      A                      A
 Frequencies --   3095.3718              3139.1792              3238.8398
 Red. masses --      1.1021                 1.0509                 1.1183
 Frc consts  --      6.2213                 6.1017                 6.9115
 IR Inten    --     30.2051                15.6608                14.0845

 - Thermochemistry -
 -------------------
 Temperature   298.150 Kelvin.  Pressure   1.00000 Atm.
 Atom     1 has atomic number  6 and mass  12.00000

 Molecular mass:    43.05478 amu.
 Principal axes and moments of inertia in atomic units:
                           1         2         3
     Eigenvalues --    54.38119 201.06498 231.97962
           X            0.99998   0.00602  -0.00146
           Y           -0.00606   0.99960  -0.02754
           Z            0.00129   0.02754   0.99962
 This molecule is an asymmetric top.
 Rotational symmetry number  1.
 Rotational temperatures (Kelvin)      1.59272     0.43078     0.37337
 Rotational constants (GHZ):          33.18686     8.97591     7.77974
 Zero-point vibrational energy     230756.4 (Joules/Mol)
                                   55.15210 (Kcal/Mol)
 Warning -- explicit consideration of   4 degrees of freedom as
           vibrations may cause significant error
 Vibrational temperatures:    143.06   350.55   538.12   712.96  1090.77
          (Kelvin)           1265.36  1331.42  1512.67  1558.48  1686.73
                             1824.85  1961.46  2029.71  2107.27  2111.29
                             2154.38  2163.48  4205.39  4325.83  4358.36
                             4445.00  4453.55  4516.58  4659.97

 Zero-point correction=                           0.087890 (Hartree/Particle)
 Thermal correction to Energy=                    0.092841
 Thermal correction to Enthalpy=                  0.093785
 Thermal correction to Gibbs Free Energy=         0.061075
 Sum of electronic and zero-point Energies=           -118.435876
 Sum of electronic and thermal Energies=              -118.430925
 Sum of electronic and thermal Enthalpies=            -118.429981
 Sum of electronic and thermal Free Energies=         -118.462691

                     E (Thermal)             CV                S
                      KCal/Mol        Cal/Mol-Kelvin    Cal/Mol-Kelvin
 Total                   58.259             15.735             68.844
 Electronic               0.000              0.000              1.377
 Translational            0.889              2.981             37.206
 Rotational               0.889              2.981             22.455
 Vibrational             56.481              9.773              7.805
 Vibration     1          0.604              1.950              3.465
 Vibration     2          0.659              1.773              1.776
 Vibration     3          0.745              1.525              1.063
 Vibration     4          0.851              1.260              0.669

 Optimization completed.
    -- Stationary point found.
 Normal termination of Gaussian 16 at Fri Sep 29 04:20:35 2023.
 Gaussian 16:  ES64L-G16RevB.01 20-Dec-2017

 ---------------------------------
 # rohf/gen geom=check guess=check
 ---------------------------------

 --------------------------
 n-propyl, ROHF/cc-pVTZ-F12
 --------------------------
 Structure from the checkpoint file:  "nPr.chk"
 Charge =  0 Multiplicity = 2

                         Standard orientation:
 ---------------------------------------------------------------------
 Center     Atomic      Atomic             Coordinates (Angstroms)
 Number     Number       Type             X           Y           Z
 ---------------------------------------------------------------------
      1          6           0        1.301513   -0.293626   -0.025793
      2          6           0        0.081511    0.550823    0.044228
      3          6           0       -1.225660   -0.241282   -0.033184
      4          1           0       -2.091819    0.415899    0.050341
      5          1           0       -1.301110   -0.780170   -0.978508
      6          1           0       -1.284834   -0.974796    0.772877
      7          1           0        0.086363    1.132857    0.979680
      8          1           0        0.108289    1.305554   -0.749008
      9          1           0        2.264052    0.137166   -0.262118
     10          1           0        1.274873   -1.332005    0.275231
 ---------------------------------------------------------------------

 SCF Done:  E(ROHF) =  -117.677676742     A.U. after   16 cycles

 The electronic state is 2-A.
 Alpha  occ. eigenvalues --  -11.22322 -11.21233 -11.21157  -1.04745  -0.90169
 Alpha  occ. eigenvalues --   -0.78253  -0.61521  -0.59772  -0.56013  -0.49601
 Alpha  occ. eigenvalues --   -0.49188  -0.48222  -0.05992
 Alpha virt. eigenvalues --    0.05370   0.05435   0.05840   0.07418   0.09000
 Alpha virt. eigenvalues --    0.09464   0.10083   0.10674   0.11644   0.12766
 Alpha virt. eigenvalues --    0.17401   0.18707   0.21644   0.23048   0.24334

 Mulliken charges and spin densities:
               1          2
     1  C   -0.277845   0.919606
     2  C   -0.072984   0.008848
     3  C   -0.295603   0.002196
     4  H    0.085435   0.000536
     5  H    0.097117   0.001275
     6  H    0.084219   0.000067
     7  H    0.064957   0.018749
     8  H    0.069126   0.005193
     9  H    0.122373   0.020735
    10  H    0.123204   0.022795
 Sum of Mulliken charges =  -0.00000   1.00000

 Dipole moment (field-independent basis, Debye):
    X=             -0.1339    Y=              0.1822    Z=              0.0967  Tot=              0.2459
 Quadrupole moment (field-independent basis, Debye-Ang):
   XX=            -21.3803   YY=            -20.8608   ZZ=            -21.7469
   XY=              0.1160   XZ=             -0.1043   YZ=             -0.4563

 Normal termination of Gaussian 16 at Fri Sep 29 04:22:29 2023.
