 Gaussian 16, Revision B.01,
 Gaussian 16:  ES64L-G16RevB.01 20-Dec-2017

 --------------------
 # b3lyp/gen opt freq
 --------------------

 -----------------------
 n-propyl, B3LYP/pcseg-2
 -----------------------
 Symbolic Z-matrix:
 Charge =  0 Multiplicity = 2

 SCF Done:  E(UB3LYP) =  -118.519514479     A.U. after   13 cycles
 SCF Done:  E(UB3LYP) =  -118.523252710     A.U. after   10 cycles
 SCF Done:  E(UB3LYP) =  -118.523287676     A.U. after    9 cycles
 SCF Done:  E(UB3LYP) =  -118.523293452     A.U. after    8 cycles
 SCF Done:  E(UB3LYP) =  -118.523297356     A.U. after    7 cycles
 SCF Done:  E(UB3LYP) =  -118.523312744     A.U. after    9 cycles
 SCF Done:  E(UB3LYP) =  -118.523389278     A.U. after   11 cycles
 SCF Done:  E(UB3LYP) =  -118.522756774     A.U. after   13 cycles
 SCF Done:  E(UB3LYP) =  -118.523442563     A.U. after    9 cycles
 SCF Done:  E(UB3LYP) =  -118.523517854     A.U. after   10 cycles
 SCF Done:  E(UB3LYP) =  -118.523603918     A.U. after    9 cycles
 SCF Done:  E(UB3LYP) =  -118.523728002     A.U. after    9 cycles
 SCF Done:  E(UB3LYP) =  -118.523758115     A.U. after    9 cycles
 SCF Done:  E(UB3LYP) =  -118.523764505     A.U. after    9 cycles
 SCF Done:  E(UB3LYP) =  -118.523766169     A.U. after    8 cycles
 SCF Done:  E(UB3LYP) =  -118.523766246     A.U. after    7 cycles
 SCF Done:  E(UB3LYP) =  -118.523766278     A.U. after    7 cycles
 Optimization completed.
    -- Stationary point found.
 Normal termination of Gaussian 16 at Thu Jun 16 18:30:15 2022.

 ------------------------------------------------------------------
 #N Geom=AllCheck Guess=TCheck SCRF=Check GenChk UB3LYP/ChkBas Freq
 ------------------------------------------------------------------

 Structure from the checkpoint file:  "/wrk/irikura/Gau-26945.chk"
 -----------------------
 n-propyl, B3LYP/pcseg-2
 -----------------------
 Charge =  0 Multiplicity = 2

                         Standard orientation:
 ---------------------------------------------------------------------
 Center     Atomic      Atomic             Coordinates (Angstroms)
 Number     Number       Type             X           Y           Z
 ---------------------------------------------------------------------
      1          6           0       -1.301513   -0.293626    0.025793
      2          6           0       -0.081511    0.550823   -0.044228
      3          6           0        1.225660   -0.241282    0.033184
      4          1           0        2.091819    0.415899   -0.050341
      5          1           0        1.301110   -0.780170    0.978508
      6          1           0        1.284834   -0.974796   -0.772877
      7          1           0       -0.086363    1.132857   -0.979680
      8          1           0       -0.108289    1.305554    0.749008
      9          1           0       -2.264052    0.137166    0.262118
     10          1           0       -1.274873   -1.332005   -0.275231
 ---------------------------------------------------------------------

 SCF Done:  E(UB3LYP) =  -118.523766278     A.U. after    1 cycles

 The electronic state is 2-A.
 Alpha  occ. eigenvalues --  -10.17565 -10.17413 -10.16117  -0.78804  -0.67905
 Alpha  occ. eigenvalues --   -0.58680  -0.45937  -0.44727  -0.41397  -0.36367
 Alpha  occ. eigenvalues --   -0.35793  -0.34891  -0.20596
 Alpha virt. eigenvalues --    0.01849   0.04606   0.04844   0.05991   0.08146
 Alpha virt. eigenvalues --    0.09506   0.10091   0.13450   0.16419   0.18213
 Alpha virt. eigenvalues --    0.18821   0.20508   0.22290   0.24612   0.25690

  Beta  occ. eigenvalues --  -10.17494 -10.16125 -10.16094  -0.77913  -0.66256
  Beta  occ. eigenvalues --   -0.57214  -0.45364  -0.44021  -0.40873  -0.35752
  Beta  occ. eigenvalues --   -0.35225  -0.34529
  Beta virt. eigenvalues --   -0.05979   0.01934   0.04653   0.05141   0.06132
  Beta virt. eigenvalues --    0.08245   0.09576   0.10222   0.13514   0.16456
  Beta virt. eigenvalues --    0.18345   0.19463   0.20904   0.24286   0.25274

 Mulliken charges and spin densities:
               1          2
     1  C   -0.178928   1.066599
     2  C    0.023774  -0.087784
     3  C   -0.078633   0.008718
     4  H    0.028336   0.000373
     5  H    0.027692   0.003272
     6  H    0.020813  -0.000414
     7  H    0.026328   0.061275
     8  H    0.021811   0.021930
     9  H    0.054744  -0.034692
    10  H    0.054064  -0.039276
 Sum of Mulliken charges =  -0.00000   1.00000

 Dipole moment (field-independent basis, Debye):
    X=              0.2082    Y=              0.2490    Z=             -0.1111  Tot=              0.3431
 Quadrupole moment (field-independent basis, Debye-Ang):
   XX=            -21.5765   YY=            -20.9348   ZZ=            -21.8981
   XY=             -0.1302   XZ=             -0.1072   YZ=              0.4519

  Exact polarizability:  43.552   1.058  38.162  -0.515  -0.081  34.227
 Approx polarizability:  51.430   1.615  50.800  -0.866   0.057  47.162

                      1                      2                      3
                      A                      A                      A
 Frequencies --     99.7523               243.6503               374.0205
 Red. masses --      1.0321                 1.1082                 1.9691
 Frc consts  --      0.0061                 0.0388                 0.1623
 IR Inten    --      0.4188                 0.0305                 2.1131

                      4                      5                      6
                      A                      A                      A
 Frequencies --    495.5746               758.1212               879.4659
 Red. masses --      1.2582                 1.1892                 2.1379
 Frc consts  --      0.1821                 0.4027                 0.9743
 IR Inten    --     53.6020                 0.8721                 0.1369

                      7                      8                      9
                      A                      A                      A
 Frequencies --    925.3827              1051.3582              1083.2004
 Red. masses --      1.2661                 1.3868                 2.4081
 Frc consts  --      0.6388                 0.9031                 1.6647
 IR Inten    --      1.2604                 1.1090                 0.2085

                     10                     11                     12
                      A                      A                      A
 Frequencies --   1172.3327              1268.3353              1363.2793
 Red. masses --      1.8266                 1.1956                 1.4677
 Frc consts  --      1.4791                 1.1332                 1.6071
 IR Inten    --      0.1749                 0.1289                 2.6911

                     13                     14                     15
                      A                      A                      A
 Frequencies --   1410.7182              1464.6212              1467.4226
 Red. masses --      1.2309                 1.0801                 1.1544
 Frc consts  --      1.4432                 1.3651                 1.4646
 IR Inten    --      2.0084                 1.0912                 3.5331

                     16                     17                     18
                      A                      A                      A
 Frequencies --   1497.3714              1503.6923              2922.8980
 Red. masses --      1.0399                 1.0572                 1.0743
 Frc consts  --      1.3737                 1.4083                 5.4076
 IR Inten    --      7.1479                 4.1943                31.1597

                     19                     20                     21
                      A                      A                      A
 Frequencies --   3006.6015              3029.2148              3089.4308
 Red. masses --      1.0816                 1.0348                 1.1017
 Frc consts  --      5.7606                 5.5945                 6.1956
 IR Inten    --     21.2164                28.7231                36.0366

                     22                     23                     24
                      A                      A                      A
 Frequencies --   3095.3735              3139.1808              3238.8423
 Red. masses --      1.1021                 1.0509                 1.1183
 Frc consts  --      6.2213                 6.1017                 6.9115
 IR Inten    --     30.2032                15.6617                14.0836

 - Thermochemistry -
 -------------------
 Temperature   298.150 Kelvin.  Pressure   1.00000 Atm.
 Atom     1 has atomic number  6 and mass  12.00000

 Molecular mass:    43.05478 amu.
 Principal axes and moments of inertia in atomic units:
                           1         2         3
     Eigenvalues --    54.38120 201.06490 231.97954
           X            0.99998  -0.00602  -0.00146
           Y            0.00606   0.99960   0.02754
           Z            0.00129  -0.02754   0.99962
 This molecule is an asymmetric top.
 Rotational symmetry number  1.
 Rotational temperatures (Kelvin)      1.59272     0.43078     0.37337
 Rotational constants (GHZ):          33.18686     8.97591     7.77974
 Zero-point vibrational energy     230758.7 (Joules/Mol)
                                   55.15265 (Kcal/Mol)
 Warning -- explicit consideration of   4 degrees of freedom as
           vibrations may cause significant error
 Vibrational temperatures:    143.52   350.56   538.13   713.02  1090.77
          (Kelvin)           1265.36  1331.42  1512.67  1558.48  1686.73
                             1824.85  1961.45  2029.71  2107.26  2111.29
                             2154.38  2163.48  4205.40  4325.83  4358.36
                             4445.00  4453.55  4516.58  4659.97

 Zero-point correction=                           0.087891 (Hartree/Particle)
 Thermal correction to Energy=                    0.092841
 Thermal correction to Enthalpy=                  0.093785
 Thermal correction to Gibbs Free Energy=         0.061079
 Sum of electronic and zero-point Energies=           -118.435875
 Sum of electronic and thermal Energies=              -118.430925
 Sum of electronic and thermal Enthalpies=            -118.429981
 Sum of electronic and thermal Free Energies=         -118.462688

                     E (Thermal)             CV                S
                      KCal/Mol        Cal/Mol-Kelvin    Cal/Mol-Kelvin
 Total                   58.259             15.735             68.837
 Electronic               0.000              0.000              1.377
 Translational            0.889              2.981             37.206
 Rotational               0.889              2.981             22.455
 Vibrational             56.481              9.773              7.799
 Vibration     1          0.604              1.949              3.459
 Vibration     2          0.659              1.773              1.776
 Vibration     3          0.745              1.525              1.063
 Vibration     4          0.851              1.260              0.669

 Optimization completed.
    -- Stationary point found.
 Normal termination of Gaussian 16 at Thu Jun 16 18:32:18 2022.
