 Gaussian 16, Revision B.01,
 Gaussian 16:  ES64L-G16RevB.01 20-Dec-2017

 --------------------
 # b3lyp/gen opt freq
 --------------------

 --------------------------
 oxygen atom, B3LYP/pcseg-2
 --------------------------
 Symbolic Z-matrix:
 Charge =  0 Multiplicity = 3

 SCF Done:  E(UB3LYP) =  -75.0954115928     A.U. after   10 cycles
 Optimization completed.
    -- Stationary point found.
 Normal termination of Gaussian 16 at Fri Feb  4 08:18:25 2022.

 ------------------------------------------------------------------
 #N Geom=AllCheck Guess=TCheck SCRF=Check GenChk UB3LYP/ChkBas Freq
 ------------------------------------------------------------------

 Structure from the checkpoint file:  "/wrk/irikura/Gau-23315.chk"
 --------------------------
 oxygen atom, B3LYP/pcseg-2
 --------------------------
 Charge =  0 Multiplicity = 3

                         Standard orientation:
 ---------------------------------------------------------------------
 Center     Atomic      Atomic             Coordinates (Angstroms)
 Number     Number       Type             X           Y           Z
 ---------------------------------------------------------------------
      1          8           0        0.000000    0.000000    0.000000
 ---------------------------------------------------------------------

 SCF Done:  E(UB3LYP) =  -75.0954115928     A.U. after    1 cycles

 Unable to determine electronic state:  an orbital has unidentified symmetry.
 Alpha  occ. eigenvalues --  -19.27833  -1.02270  -0.46505  -0.46505  -0.39038
 Alpha virt. eigenvalues --    0.29357   0.30019   0.30019   0.32067   1.36809
 Alpha virt. eigenvalues --    1.36809   1.40914   1.40914   1.42353   2.08732
 Alpha virt. eigenvalues --    2.08732   2.14406   2.91140   3.84980   3.84980

  Beta  occ. eigenvalues --  -19.22521  -0.86444  -0.33985
  Beta virt. eigenvalues --   -0.18796  -0.18796   0.32604   0.33155   0.35325
  Beta virt. eigenvalues --    0.35325   1.46674   1.46674   1.47056   1.48117
  Beta virt. eigenvalues --    1.48117   2.18034   2.21723   2.21723   3.00052

 Mulliken charges and spin densities:
               1          2
     1  O    0.000000   2.000000
 Sum of Mulliken charges =   0.00000   2.00000

 Dipole moment (field-independent basis, Debye):
    X=              0.0000    Y=              0.0000    Z=              0.0000  Tot=              0.0000
 Quadrupole moment (field-independent basis, Debye-Ang):
   XX=             -4.7553   YY=             -4.7553   ZZ=             -6.0260
   XY=              0.0000   XZ=             -0.0000   YZ=              0.0000

  Exact polarizability:   3.102   0.000   3.102   0.000   0.000   3.140
 Approx polarizability:   3.553  -0.000   3.553  -0.000  -0.000   3.187

 - Thermochemistry -
 -------------------
 Temperature   298.150 Kelvin.  Pressure   1.00000 Atm.
 Atom     1 has atomic number  8 and mass  15.99491
 Molecular mass:    15.99491 amu.
 Zero-point vibrational energy          0.0 (Joules/Mol)
                                    0.00000 (Kcal/Mol)
 Vibrational temperatures:
          (Kelvin)

 Zero-point correction=                           0.000000 (Hartree/Particle)
 Thermal correction to Energy=                    0.001416
 Thermal correction to Enthalpy=                  0.002360
 Thermal correction to Gibbs Free Energy=        -0.014952
 Sum of electronic and zero-point Energies=            -75.095412
 Sum of electronic and thermal Energies=               -75.093995
 Sum of electronic and thermal Enthalpies=             -75.093051
 Sum of electronic and thermal Free Energies=          -75.110364

                     E (Thermal)             CV                S
                      KCal/Mol        Cal/Mol-Kelvin    Cal/Mol-Kelvin
 Total                    0.889              2.981             36.438
 Electronic               0.000              0.000              2.183
 Translational            0.889              2.981             34.254
 Rotational               0.000              0.000              0.000
 Vibrational              0.000              0.000              0.000

 Optimization completed.
    -- Stationary point found.
 Normal termination of Gaussian 16 at Fri Feb  4 08:18:29 2022.
