 Gaussian 16, Revision B.01,
 Gaussian 16:  ES64L-G16RevB.01 20-Dec-2017

 --------------------
 # b3lyp/gen opt freq
 --------------------

 -----------------
 O2, B3LYP/pcseg-2
 -----------------
 Symbolic Z-matrix:
 Charge =  0 Multiplicity = 3

 SCF Done:  E(UB3LYP) =  -150.376786690     A.U. after    9 cycles
 SCF Done:  E(UB3LYP) =  -150.386992066     A.U. after    9 cycles
 SCF Done:  E(UB3LYP) =  -150.387271780     A.U. after    7 cycles
 SCF Done:  E(UB3LYP) =  -150.387271836     A.U. after    5 cycles
 Optimization completed.
    -- Stationary point found.
 Normal termination of Gaussian 16 at Thu Feb  3 12:22:48 2022.

 ------------------------------------------------------------------
 #N Geom=AllCheck Guess=TCheck SCRF=Check GenChk UB3LYP/ChkBas Freq
 ------------------------------------------------------------------

 Structure from the checkpoint file:  "/wrk/irikura/Gau-23977.chk"
 -----------------
 O2, B3LYP/pcseg-2
 -----------------
 Charge =  0 Multiplicity = 3

                         Standard orientation:
 ---------------------------------------------------------------------
 Center     Atomic      Atomic             Coordinates (Angstroms)
 Number     Number       Type             X           Y           Z
 ---------------------------------------------------------------------
      1          8           0        0.000000    0.000000    0.602550
      2          8           0        0.000000    0.000000   -0.602550
 ---------------------------------------------------------------------

 SCF Done:  E(UB3LYP) =  -150.387271836     A.U. after    1 cycles

 The electronic state is 3-SGG.
 Alpha  occ. eigenvalues --  -19.29283 -19.29263  -1.31681  -0.84666  -0.57554
 Alpha  occ. eigenvalues --   -0.57554  -0.56178  -0.31940  -0.31940
 Alpha virt. eigenvalues --    0.13428   0.28185   0.28185   0.28331   0.33716
 Alpha virt. eigenvalues --    0.34643   0.38277   0.38277   0.71968   1.20410
 Alpha virt. eigenvalues --    1.20410   1.28707   1.28707   1.60167   1.60167

  Beta  occ. eigenvalues --  -19.26131 -19.26097  -1.26048  -0.75773  -0.52293
  Beta  occ. eigenvalues --   -0.47347  -0.47347
  Beta virt. eigenvalues --   -0.12565  -0.12565   0.15807   0.29815   0.30280
  Beta virt. eigenvalues --    0.30280   0.34693   0.36634   0.41020   0.41020
  Beta virt. eigenvalues --    0.73824   1.24579   1.24579   1.31709   1.31709

 Mulliken charges and spin densities:
               1          2
     1  O   -0.000000   1.000000
     2  O   -0.000000   1.000000
 Sum of Mulliken charges =  -0.00000   2.00000

 Dipole moment (field-independent basis, Debye):
    X=             -0.0000    Y=             -0.0000    Z=              0.0000  Tot=              0.0000
 Quadrupole moment (field-independent basis, Debye-Ang):
   XX=            -10.0796   YY=            -10.0796   ZZ=            -10.6550
   XY=              0.0000   XZ=              0.0000   YZ=              0.0000

  Exact polarizability:   5.563   0.000   5.563  -0.000   0.000  14.479
 Approx polarizability:   6.779  -0.000   6.779  -0.000  -0.000  24.928

                      1
                     SGG
 Frequencies --   1632.8628
 Red. masses --     15.9949
 Frc consts  --     25.1265
 IR Inten    --      0.0000

 - Thermochemistry -
 -------------------
 Temperature   298.150 Kelvin.  Pressure   1.00000 Atm.
 Atom     1 has atomic number  8 and mass  15.99491

 Molecular mass:    31.98983 amu.
 Principal axes and moments of inertia in atomic units:
                           1         2         3
     Eigenvalues --    -0.00000  41.47590  41.47590
           X           -0.00000   1.00000  -0.00000
           Y            0.00000   0.00000   1.00000
           Z            1.00000   0.00000  -0.00000
 This molecule is a prolate symmetric top.
 Rotational symmetry number  2.
 Rotational temperature (Kelvin)      2.08830
 Rotational constant (GHZ):          43.513009
 Zero-point vibrational energy       9766.7 (Joules/Mol)
                                    2.33429 (Kcal/Mol)
 Vibrational temperatures:   2349.33
          (Kelvin)

 Zero-point correction=                           0.003720 (Hartree/Particle)
 Thermal correction to Energy=                    0.006083
 Thermal correction to Enthalpy=                  0.007027
 Thermal correction to Gibbs Free Energy=        -0.016244
 Sum of electronic and zero-point Energies=           -150.383552
 Sum of electronic and thermal Energies=              -150.381189
 Sum of electronic and thermal Enthalpies=            -150.380244
 Sum of electronic and thermal Free Energies=         -150.403516

                     E (Thermal)             CV                S
                      KCal/Mol        Cal/Mol-Kelvin    Cal/Mol-Kelvin
 Total                    3.817              5.015             48.979
 Electronic               0.000              0.000              2.183
 Translational            0.889              2.981             36.321
 Rotational               0.592              1.987             10.469
 Vibrational              2.336              0.047              0.007

 Optimization completed.
    -- Stationary point found.
 Normal termination of Gaussian 16 at Thu Feb  3 12:23:00 2022.
