 Gaussian 16, Revision B.01,
 Gaussian 16:  ES64L-G16RevB.01 20-Dec-2017

 --------------------
 # b3lyp/gen opt freq
 --------------------

 --------------------
 ozone, B3LYP/pcseg-2
 --------------------
 Symbolic Z-matrix:
 Charge =  0 Multiplicity = 1

 SCF Done:  E(RB3LYP) =  -225.504668522     A.U. after   11 cycles
 SCF Done:  E(RB3LYP) =  -225.508380696     A.U. after   11 cycles
 SCF Done:  E(RB3LYP) =  -225.509031785     A.U. after   11 cycles
 SCF Done:  E(RB3LYP) =  -225.509132577     A.U. after    8 cycles
 SCF Done:  E(RB3LYP) =  -225.509133322     A.U. after    7 cycles
 Optimization completed.
    -- Stationary point found.
 Normal termination of Gaussian 16 at Wed Jun 15 10:34:14 2022.

 ------------------------------------------------------------------
 #N Geom=AllCheck Guess=TCheck SCRF=Check GenChk RB3LYP/ChkBas Freq
 ------------------------------------------------------------------

 Structure from the checkpoint file:  "/wrk/irikura/Gau-3770.chk"
 --------------------
 ozone, B3LYP/pcseg-2
 --------------------
 Charge =  0 Multiplicity = 1

                         Standard orientation:
 ---------------------------------------------------------------------
 Center     Atomic      Atomic             Coordinates (Angstroms)
 Number     Number       Type             X           Y           Z
 ---------------------------------------------------------------------
      1          8           0       -0.000000    0.000000    0.428968
      2          8           0       -0.000000    1.076610   -0.214484
      3          8           0       -0.000000   -1.076610   -0.214484
 ---------------------------------------------------------------------

 SCF Done:  E(RB3LYP) =  -225.509133322     A.U. after    1 cycles

 The electronic state is 1-A1.
 Alpha  occ. eigenvalues --  -19.43653 -19.25357 -19.25355  -1.38528  -1.11505
 Alpha  occ. eigenvalues --   -0.78976  -0.61785  -0.60798  -0.60545  -0.37789
 Alpha  occ. eigenvalues --   -0.36201  -0.35075
 Alpha virt. eigenvalues --   -0.19772   0.06396   0.13556   0.23827   0.26767
 Alpha virt. eigenvalues --    0.28330   0.28429   0.34904   0.34904   0.36606
 Alpha virt. eigenvalues --    0.39676   0.39781   0.44817   0.68969   0.72664

 Mulliken charges:
               1
     1  O    0.271974
     2  O   -0.135987
     3  O   -0.135987
 Sum of Mulliken charges =  -0.00000

 Dipole moment (field-independent basis, Debye):
    X=              0.0000    Y=             -0.0000    Z=              0.6780  Tot=              0.6780
 Quadrupole moment (field-independent basis, Debye-Ang):
   XX=            -14.6313   YY=            -17.5370   ZZ=            -16.0747
   XY=             -0.0000   XZ=             -0.0000   YZ=              0.0000

  Exact polarizability:   8.173   0.000  28.955  -0.000   0.000  10.666
 Approx polarizability:  11.138   0.000  83.087   0.000  -0.000  15.504

                      1                      2                      3
                     A1                     B2                     A1
 Frequencies --    748.7480              1200.0029              1255.6402
 Red. masses --     15.9949                15.9949                15.9949
 Frc consts  --      5.2833                13.5705                14.8581
 IR Inten    --      7.5841               237.1591                 0.1178

 - Thermochemistry -
 -------------------
 Temperature   298.150 Kelvin.  Pressure   1.00000 Atm.
 Atom     1 has atomic number  8 and mass  15.99491

 Molecular mass:    47.98474 amu.
 Principal axes and moments of inertia in atomic units:
                           1         2         3
     Eigenvalues --    15.76594 132.41171 148.17766
           X            0.00000   0.00000   1.00000
           Y            1.00000   0.00000  -0.00000
           Z           -0.00000   1.00000  -0.00000
 This molecule is an asymmetric top.
 Rotational symmetry number  2.
 Rotational temperatures (Kelvin)      5.49374     0.65413     0.58453
 Rotational constants (GHZ):         114.47089    13.62977    12.17958
 Zero-point vibrational energy      19166.5 (Joules/Mol)
                                    4.58091 (Kcal/Mol)
 Vibrational temperatures:   1077.28  1726.54  1806.59
          (Kelvin)

 Zero-point correction=                           0.007300 (Hartree/Particle)
 Thermal correction to Energy=                    0.010257
 Thermal correction to Enthalpy=                  0.011202
 Thermal correction to Gibbs Free Energy=        -0.015807
 Sum of electronic and zero-point Energies=           -225.501833
 Sum of electronic and thermal Energies=              -225.498876
 Sum of electronic and thermal Enthalpies=            -225.497932
 Sum of electronic and thermal Free Energies=         -225.524940

                     E (Thermal)             CV                S
                      KCal/Mol        Cal/Mol-Kelvin    Cal/Mol-Kelvin
 Total                    6.437              7.077             56.843
 Electronic               0.000              0.000              0.000
 Translational            0.889              2.981             37.529
 Rotational               0.889              2.981             18.987
 Vibrational              4.659              1.115              0.327

 Optimization completed.
    -- Stationary point found.
 Normal termination of Gaussian 16 at Wed Jun 15 10:34:41 2022.
