 Gaussian 16, Revision B.01,

 ---------------------------------------
 # b3lyp/gen opt freq CPHF(Grid=OneStep)
 ---------------------------------------

 -----------------------------
 2-chlorophenyl, B3LYP/pcseg-2
 -----------------------------
 Symbolic Z-matrix:
 Charge =  0 Multiplicity = 2

 SCF Done:  E(UB3LYP) =  -691.282730323     A.U. after   17 cycles
 Optimization completed.
    -- Stationary point found.
 Normal termination of Gaussian 16 at Fri Sep 29 10:00:22 2023.

 ------------------------------------------------------------------
 #N Geom=AllCheck Guess=TCheck SCRF=Check GenChk UB3LYP/ChkBas Freq
 ------------------------------------------------------------------

 Structure from the checkpoint file:  "oC6H4Cl.chk"
 -----------------------------
 2-chlorophenyl, B3LYP/pcseg-2
 -----------------------------
 Charge =  0 Multiplicity = 2

 SCF Done:  E(UB3LYP) =  -691.282730323     A.U. after    1 cycles

  Exact polarizability:  80.180  -3.278 106.530   0.000   0.000  44.203
 Approx polarizability: 136.703  -4.969 168.116  -0.000  -0.000  68.698

                      1                      2                      3
                     A"                     A'                     A'
 Frequencies --    181.2527               281.3900               410.5969
 Red. masses --      5.9403                 6.6985                12.9293
 Frc consts  --      0.1150                 0.3125                 1.2843
 IR Inten    --      0.9378                 0.0549                 2.7171

                      4                      5                      6
                     A"                     A"                     A'
 Frequencies --    417.4978               492.1258               623.0432
 Red. masses --      3.1874                 4.1261                 7.2215
 Frc consts  --      0.3273                 0.5888                 1.6516
 IR Inten    --      4.7776                 1.6865                 0.6558

                      7                      8                      9
                     A"                     A'                     A"
 Frequencies --    676.6491               702.0407               748.9976
 Red. masses --      3.9825                 7.0890                 1.1988
 Frc consts  --      1.0743                 2.0585                 0.3962
 IR Inten    --      0.1213                32.5559                71.6147

                     10                     11                     12
                     A"                     A"                     A'
 Frequencies --    850.6936               950.6126               986.7399
 Red. masses --      1.3351                 1.3779                 7.0448
 Frc consts  --      0.5693                 0.7336                 4.0413
 IR Inten    --      1.0573                 1.0056                 6.8712

                     13                     14                     15
                     A"                     A'                     A'
 Frequencies --    992.0383              1037.3518              1103.5252
 Red. masses --      1.3118                 2.6148                 2.7199
 Frc consts  --      0.7606                 1.6578                 1.9515
 IR Inten    --      0.0548                10.1995                35.2632

                     16                     17                     18
                     A'                     A'                     A'
 Frequencies --   1126.2235              1177.9878              1246.8549
 Red. masses --      1.7439                 1.1389                 1.6167
 Frc consts  --      1.3032                 0.9312                 1.4809
 IR Inten    --      8.3545                 1.9141                 2.9059

                     19                     20                     21
                     A'                     A'                     A'
 Frequencies --   1320.9488              1443.4791              1464.9596
 Red. masses --      3.9640                 2.3195                 2.1029
 Frc consts  --      4.0753                 2.8475                 2.6590
 IR Inten    --      0.1216                 9.5470                30.0880

                     22                     23                     24
                     A'                     A'                     A'
 Frequencies --   1563.7290              1623.1052              3171.3747
 Red. masses --      4.6053                 6.8878                 1.0851
 Frc consts  --      6.6348                10.6911                 6.4299
 IR Inten    --      6.3298                 8.5095                 0.3941

                     25                     26                     27
                     A'                     A'                     A'
 Frequencies --   3181.5341              3188.7567              3199.1219
 Red. masses --      1.0884                 1.0926                 1.0965
 Frc consts  --      6.4912                 6.5458                 6.6120
 IR Inten    --      2.0432                 6.6515                 6.1924

 - Thermochemistry -
 -------------------
 Temperature   298.150 Kelvin.  Pressure   1.00000 Atm.
 Atom     1 has atomic number  6 and mass  12.00000

 Molecular mass:   111.00015 amu.
 Principal axes and moments of inertia in atomic units:
                           1         2         3
     Eigenvalues --   294.546211160.566571455.11278
           X           -0.05744   0.99835   0.00000
           Y            0.99835   0.05744   0.00000
           Z           -0.00000   0.00000   1.00000
 This molecule is an asymmetric top.
 Rotational symmetry number  1.
 Rotational temperatures (Kelvin)      0.29406     0.07463     0.05952
 Rotational constants (GHZ):           6.12719     1.55505     1.24028
 Zero-point vibrational energy     204337.9 (Joules/Mol)
                                   48.83793 (Kcal/Mol)
 Warning -- explicit consideration of   5 degrees of freedom as
           vibrations may cause significant error
 Vibrational temperatures:    260.78   404.86   590.76   600.69   708.06
          (Kelvin)            896.42   973.55  1010.08  1077.64  1223.96
                             1367.72  1419.70  1427.32  1492.52  1587.73
                             1620.38  1694.86  1793.95  1900.55  2076.84
                             2107.75  2249.86  2335.29  4562.90  4577.52
                             4587.91  4602.82

 Zero-point correction=                           0.077828 (Hartree/Particle)
 Thermal correction to Energy=                    0.083320
 Thermal correction to Enthalpy=                  0.084264
 Thermal correction to Gibbs Free Energy=         0.047404
 Sum of electronic and zero-point Energies=           -691.204902
 Sum of electronic and thermal Energies=              -691.199410
 Sum of electronic and thermal Enthalpies=            -691.198466
 Sum of electronic and thermal Free Energies=         -691.235327

                     E (Thermal)             CV                S
                      KCal/Mol        Cal/Mol-Kelvin    Cal/Mol-Kelvin
 Total                   52.284             20.579             77.579
 Electronic               0.000              0.000              1.377
 Translational            0.889              2.981             40.029
 Rotational               0.889              2.981             27.700
 Vibrational             50.507             14.617              8.473
 Vibration     1          0.630              1.865              2.315
 Vibration     2          0.681              1.708              1.525
 Vibration     3          0.775              1.447              0.925
 Vibration     4          0.781              1.432              0.901
 Vibration     5          0.848              1.267              0.678

 Optimization completed.
    -- Stationary point found.
 Normal termination of Gaussian 16 at Fri Sep 29 10:20:13 2023.
 Gaussian 16:  ES64L-G16RevB.01 20-Dec-2017

 ---------------------------------
 # rohf/gen geom=check guess=check
 ---------------------------------

 --------------------------------
 2-chlorophenyl, ROHF/cc-pVTZ-F12
 --------------------------------
 Structure from the checkpoint file:  "oC6H4Cl.chk"
 Charge =  0 Multiplicity = 2

                         Standard orientation:
 ---------------------------------------------------------------------
 Center     Atomic      Atomic             Coordinates (Angstroms)
 Number     Number       Type             X           Y           Z
 ---------------------------------------------------------------------
      1          6           0        0.168121   -2.259333    0.000000
      2          1           0        0.228659   -3.339426    0.000000
      3          6           0        1.342340   -1.498504    0.000000
      4          6           0       -1.070356   -1.624685    0.000000
      5          1           0        2.315790   -1.970323    0.000000
      6          1           0       -1.976202   -2.215099    0.000000
      7          6           0        1.193563   -0.138018    0.000000
      8          6           0       -1.167112   -0.236851    0.000000
      9          1           0       -2.129833    0.255653    0.000000
     10          6           0        0.000000    0.528135    0.000000
     11         17           0       -0.072809    2.273219    0.000000
 ---------------------------------------------------------------------

 SCF Done:  E(ROHF) =  -689.076339986     A.U. after   19 cycles

 The electronic state is 2-A'.
 Alpha  occ. eigenvalues -- -104.84417 -11.30962 -11.26349 -11.25845 -11.25615
 Alpha  occ. eigenvalues --  -11.25447 -11.25057 -10.56899  -8.03597  -8.03441
 Alpha  occ. eigenvalues --   -8.03437  -1.19306  -1.12409  -1.02864  -0.99876
 Alpha  occ. eigenvalues --   -0.84314  -0.81339  -0.69825  -0.65304  -0.63755
 Alpha  occ. eigenvalues --   -0.59902  -0.55292  -0.55191  -0.52571  -0.47523
 Alpha  occ. eigenvalues --   -0.45902  -0.35766  -0.34367  -0.10919
 Alpha virt. eigenvalues --    0.04478   0.04990   0.05563   0.06947   0.07331
 Alpha virt. eigenvalues --    0.07719   0.08828   0.09284   0.09415   0.10379
 Alpha virt. eigenvalues --    0.11205   0.11618   0.12033   0.12138   0.12597

 Mulliken charges and spin densities:
               1          2
     1  C   -0.162539   0.015881
     2  H    0.153292   0.002462
     3  C   -0.172867   0.018131
     4  C   -0.205003   0.002252
     5  H    0.176676   0.004686
     6  H    0.153650   0.000147
     7  C    0.062655   0.917667
     8  C   -0.119522   0.013190
     9  H    0.164099   0.002817
    10  C    0.026823   0.017209
    11  Cl  -0.077264   0.005559
 Sum of Mulliken charges =  -0.00000   1.00000

 Dipole moment (field-independent basis, Debye):
    X=             -0.5101    Y=             -2.2867    Z=              0.0000  Tot=              2.3429
 Quadrupole moment (field-independent basis, Debye-Ang):
   XX=            -43.5230   YY=            -45.0483   ZZ=            -51.3227
   XY=             -1.0495   XZ=              0.0000   YZ=              0.0000

 Normal termination of Gaussian 16 at Fri Sep 29 10:32:50 2023.
