 Gaussian 16, Revision B.01,
 Gaussian 16:  ES64L-G16RevB.01 20-Dec-2017

 --------------------
 # b3lyp/gen opt freq
 --------------------

 -----------------------------
 2-chlorophenyl, B3LYP/pcseg-2
 -----------------------------
 Symbolic Z-matrix:
 Charge =  0 Multiplicity = 2

 SCF Done:  E(UB3LYP) =  -691.282593373     A.U. after   17 cycles
 SCF Done:  E(UB3LYP) =  -691.282724097     A.U. after   13 cycles
 SCF Done:  E(UB3LYP) =  -691.282729801     A.U. after    9 cycles
 SCF Done:  E(UB3LYP) =  -691.282730323     A.U. after    8 cycles
 Optimization completed.
    -- Stationary point found.
 Normal termination of Gaussian 16 at Fri Jun 17 14:27:36 2022.

 ------------------------------------------------------------------
 #N Geom=AllCheck Guess=TCheck SCRF=Check GenChk UB3LYP/ChkBas Freq
 ------------------------------------------------------------------

 Structure from the checkpoint file:  "/wrk/irikura/Gau-8088.chk"
 -----------------------------
 2-chlorophenyl, B3LYP/pcseg-2
 -----------------------------
 Charge =  0 Multiplicity = 2

                         Standard orientation:
 ---------------------------------------------------------------------
 Center     Atomic      Atomic             Coordinates (Angstroms)
 Number     Number       Type             X           Y           Z
 ---------------------------------------------------------------------
      1          6           0        0.168121   -2.259333   -0.000000
      2          1           0        0.228658   -3.339426   -0.000000
      3          6           0        1.342340   -1.498504   -0.000000
      4          6           0       -1.070356   -1.624685    0.000000
      5          1           0        2.315790   -1.970323   -0.000000
      6          1           0       -1.976202   -2.215099    0.000000
      7          6           0        1.193563   -0.138018   -0.000000
      8          6           0       -1.167112   -0.236851    0.000000
      9          1           0       -2.129833    0.255653    0.000000
     10          6           0       -0.000000    0.528135    0.000000
     11         17           0       -0.072809    2.273219    0.000000
 ---------------------------------------------------------------------

 SCF Done:  E(UB3LYP) =  -691.282730323     A.U. after    1 cycles

 The electronic state is 2-A'.
 Alpha  occ. eigenvalues -- -101.51992 -10.24949 -10.21819 -10.20130 -10.20091
 Alpha  occ. eigenvalues --  -10.19831 -10.19435  -9.46491  -7.22683  -7.21771
 Alpha  occ. eigenvalues --   -7.21739  -0.90721  -0.85203  -0.77125  -0.75113
 Alpha  occ. eigenvalues --   -0.63178  -0.61157  -0.53196  -0.48819  -0.47360
 Alpha  occ. eigenvalues --   -0.45113  -0.41402  -0.41380  -0.38484  -0.34708
 Alpha  occ. eigenvalues --   -0.32324  -0.28241  -0.26990  -0.26338
 Alpha virt. eigenvalues --   -0.03684  -0.02986   0.00814   0.03206   0.03808
 Alpha virt. eigenvalues --    0.05554   0.07276   0.11411   0.11877   0.14147
 Alpha virt. eigenvalues --    0.15270   0.15603   0.18067   0.19066   0.19695

  Beta  occ. eigenvalues -- -101.51969 -10.24965 -10.20207 -10.20097 -10.20032
  Beta  occ. eigenvalues --  -10.19696 -10.19485  -9.46468  -7.22615  -7.21764
  Beta  occ. eigenvalues --   -7.21718  -0.90080  -0.84885  -0.76432  -0.74230
  Beta  occ. eigenvalues --   -0.62591  -0.60300  -0.52543  -0.48202  -0.46753
  Beta  occ. eigenvalues --   -0.44787  -0.41115  -0.40361  -0.38120  -0.34715
  Beta  occ. eigenvalues --   -0.32169  -0.27764  -0.26066
  Beta virt. eigenvalues --   -0.11291  -0.03760  -0.02072   0.01031   0.03346
  Beta virt. eigenvalues --    0.03929   0.05764   0.07318   0.12177   0.12453
  Beta virt. eigenvalues --    0.14609   0.15402   0.15690   0.18317   0.19123

 Mulliken charges and spin densities:
               1          2
     1  C   -0.028457   0.060154
     2  H    0.033624   0.009139
     3  C   -0.034638  -0.054610
     4  C   -0.042199  -0.038043
     5  H    0.051638   0.024016
     6  H    0.026644   0.000767
     7  C   -0.018818   0.957311
     8  C   -0.021957   0.050913
     9  H    0.045088   0.011846
    10  C    0.110661  -0.042011
    11  Cl  -0.121588   0.020518
 Sum of Mulliken charges =  -0.00000   1.00000

 Dipole moment (field-independent basis, Debye):
    X=             -0.6014    Y=             -2.1616    Z=              0.0000  Tot=              2.2437
 Quadrupole moment (field-independent basis, Debye-Ang):
   XX=            -43.8415   YY=            -44.7453   ZZ=            -50.5021
   XY=             -1.0691   XZ=              0.0000   YZ=             -0.0000

  Exact polarizability:  80.180  -3.278 106.530  -0.000  -0.000  44.202
 Approx polarizability: 136.703  -4.969 168.115   0.000  -0.000  68.698

                      1                      2                      3
                     A"                     A'                     A'
 Frequencies --    181.2606               281.4018               410.5969
 Red. masses --      5.9403                 6.6984                12.9294
 Frc consts  --      0.1150                 0.3125                 1.2843
 IR Inten    --      0.9378                 0.0549                 2.7170

                      4                      5                      6
                     A"                     A"                     A'
 Frequencies --    417.4982               492.1284               623.0473
 Red. masses --      3.1875                 4.1260                 7.2215
 Frc consts  --      0.3273                 0.5888                 1.6517
 IR Inten    --      4.7772                 1.6872                 0.6556

                      7                      8                      9
                     A"                     A'                     A"
 Frequencies --    676.6494               702.0432               748.9967
 Red. masses --      3.9825                 7.0890                 1.1988
 Frc consts  --      1.0743                 2.0585                 0.3962
 IR Inten    --      0.1213                32.5547                71.6146

                     10                     11                     12
                     A"                     A"                     A'
 Frequencies --    850.6932               950.6128               986.7414
 Red. masses --      1.3351                 1.3779                 7.0447
 Frc consts  --      0.5693                 0.7336                 4.0413
 IR Inten    --      1.0574                 1.0056                 6.8726

                     13                     14                     15
                     A"                     A'                     A'
 Frequencies --    992.0371              1037.3522              1103.5238
 Red. masses --      1.3118                 2.6148                 2.7199
 Frc consts  --      0.7606                 1.6578                 1.9515
 IR Inten    --      0.0549                10.1999                35.2623

                     16                     17                     18
                     A'                     A'                     A'
 Frequencies --   1126.2247              1177.9877              1246.8547
 Red. masses --      1.7439                 1.1389                 1.6167
 Frc consts  --      1.3032                 0.9312                 1.4809
 IR Inten    --      8.3550                 1.9144                 2.9049

                     19                     20                     21
                     A'                     A'                     A'
 Frequencies --   1320.9490              1443.4796              1464.9633
 Red. masses --      3.9641                 2.3194                 2.1029
 Frc consts  --      4.0753                 2.8474                 2.6590
 IR Inten    --      0.1216                 9.5466                30.0934

                     22                     23                     24
                     A'                     A'                     A'
 Frequencies --   1563.7288              1623.1132              3171.3733
 Red. masses --      4.6053                 6.8880                 1.0851
 Frc consts  --      6.6349                10.6916                 6.4299
 IR Inten    --      6.3297                 8.5123                 0.3946

                     25                     26                     27
                     A'                     A'                     A'
 Frequencies --   3181.5363              3188.7580              3199.1248
 Red. masses --      1.0884                 1.0926                 1.0965
 Frc consts  --      6.4912                 6.5458                 6.6120
 IR Inten    --      2.0443                 6.6532                 6.1905

 - Thermochemistry -
 -------------------
 Temperature   298.150 Kelvin.  Pressure   1.00000 Atm.
 Atom     1 has atomic number  6 and mass  12.00000

 Molecular mass:   111.00015 amu.
 Principal axes and moments of inertia in atomic units:
                           1         2         3
     Eigenvalues --   294.546111160.566741455.11286
           X           -0.05744   0.99835   0.00000
           Y            0.99835   0.05744   0.00000
           Z            0.00000   0.00000   1.00000
 This molecule is an asymmetric top.
 Rotational symmetry number  1.
 Rotational temperatures (Kelvin)      0.29406     0.07463     0.05952
 Rotational constants (GHZ):           6.12719     1.55505     1.24028
 Zero-point vibrational energy     204338.2 (Joules/Mol)
                                   48.83800 (Kcal/Mol)
 Warning -- explicit consideration of   5 degrees of freedom as
           vibrations may cause significant error
 Vibrational temperatures:    260.79   404.87   590.76   600.69   708.06
          (Kelvin)            896.43   973.55  1010.08  1077.64  1223.96
                             1367.72  1419.70  1427.32  1492.52  1587.72
                             1620.39  1694.86  1793.95  1900.55  2076.85
                             2107.76  2249.86  2335.30  4562.90  4577.52
                             4587.91  4602.83

 Zero-point correction=                           0.077828 (Hartree/Particle)
 Thermal correction to Energy=                    0.083320
 Thermal correction to Enthalpy=                  0.084264
 Thermal correction to Gibbs Free Energy=         0.047404
 Sum of electronic and zero-point Energies=           -691.204902
 Sum of electronic and thermal Energies=              -691.199410
 Sum of electronic and thermal Enthalpies=            -691.198466
 Sum of electronic and thermal Free Energies=         -691.235326

                     E (Thermal)             CV                S
                      KCal/Mol        Cal/Mol-Kelvin    Cal/Mol-Kelvin
 Total                   52.284             20.578             77.579
 Electronic               0.000              0.000              1.377
 Translational            0.889              2.981             40.029
 Rotational               0.889              2.981             27.700
 Vibrational             50.507             14.617              8.473
 Vibration     1          0.630              1.865              2.315
 Vibration     2          0.681              1.708              1.525
 Vibration     3          0.775              1.447              0.925
 Vibration     4          0.781              1.432              0.901
 Vibration     5          0.848              1.267              0.678

 Optimization completed.
    -- Stationary point found.
 Normal termination of Gaussian 16 at Fri Jun 17 14:32:05 2022.
