 Gaussian 16, Revision B.01,

 ---------------------------------------
 # b3lyp/gen opt freq CPHF(Grid=OneStep)
 ---------------------------------------

 -------------------------------
 chlorine dioxide, B3LYP/pcseg-2
 -------------------------------
 Symbolic Z-matrix:
 Charge =  0 Multiplicity = 2

 SCF Done:  E(UB3LYP) =  -610.556701355     A.U. after   13 cycles
 Optimization completed.
    -- Stationary point found.
 Normal termination of Gaussian 16 at Sat Sep 30 08:54:52 2023.

 ------------------------------------------------------------------
 #N Geom=AllCheck Guess=TCheck SCRF=Check GenChk UB3LYP/ChkBas Freq
 ------------------------------------------------------------------

 Structure from the checkpoint file:  "oclo.chk"
 -------------------------------
 chlorine dioxide, B3LYP/pcseg-2
 -------------------------------
 Charge =  0 Multiplicity = 2

 SCF Done:  E(UB3LYP) =  -610.556701355     A.U. after    1 cycles

  Exact polarizability:  11.655   0.000  38.094   0.000   0.000  17.555
 Approx polarizability:  16.862   0.000  82.689   0.000  -0.000  27.369

                      1                      2                      3
                     A1                     A1                     B2
 Frequencies --    452.1468               945.7620              1084.3939
 Red. masses --     18.3554                18.3982                20.4083
 Frc consts  --      2.2109                 9.6959                14.1394
 IR Inten    --     18.0060                14.3002               103.2927

 - Thermochemistry -
 -------------------
 Temperature   298.150 Kelvin.  Pressure   1.00000 Atm.
 Atom     1 has atomic number 17 and mass  34.96885

 Molecular mass:    66.95868 amu.
 Principal axes and moments of inertia in atomic units:
                           1         2         3
     Eigenvalues --    36.50721 183.70723 220.21444
           X            0.00000   0.00000   1.00000
           Y            1.00000   0.00000  -0.00000
           Z            0.00000   1.00000   0.00000
 This molecule is an asymmetric top.
 Rotational symmetry number  2.
 Rotational temperatures (Kelvin)      2.37252     0.47148     0.39332
 Rotational constants (GHZ):          49.43520     9.82401     8.19538
 Zero-point vibrational energy      14847.5 (Joules/Mol)
                                    3.54863 (Kcal/Mol)
 Warning -- explicit consideration of   1 degrees of freedom as
           vibrations may cause significant error
 Vibrational temperatures:    650.54  1360.74  1560.20
          (Kelvin)

 Zero-point correction=                           0.005655 (Hartree/Particle)
 Thermal correction to Energy=                    0.008822
 Thermal correction to Enthalpy=                  0.009766
 Thermal correction to Gibbs Free Energy=        -0.019413
 Sum of electronic and zero-point Energies=           -610.551046
 Sum of electronic and thermal Energies=              -610.547880
 Sum of electronic and thermal Enthalpies=            -610.546936
 Sum of electronic and thermal Free Energies=         -610.576114

                     E (Thermal)             CV                S
                      KCal/Mol        Cal/Mol-Kelvin    Cal/Mol-Kelvin
 Total                    5.536              8.052             61.412
 Electronic               0.000              0.000              1.377
 Translational            0.889              2.981             38.522
 Rotational               0.889              2.981             20.540
 Vibrational              3.758              2.090              0.972
 Vibration     1          0.811              1.356              0.789

 Optimization completed.
    -- Stationary point found.
 Normal termination of Gaussian 16 at Sat Sep 30 08:55:19 2023.
 Gaussian 16:  ES64L-G16RevB.01 20-Dec-2017

 ---------------------------------
 # rohf/gen geom=check guess=check
 ---------------------------------

 ----------------------------------
 chlorine dioxide, ROHF/cc-pVTZ-F12
 ----------------------------------
 Structure from the checkpoint file:  "oclo.chk"
 Charge =  0 Multiplicity = 2

                         Standard orientation:
 ---------------------------------------------------------------------
 Center     Atomic      Atomic             Coordinates (Angstroms)
 Number     Number       Type             X           Y           Z
 ---------------------------------------------------------------------
      1         17           0        0.000000    0.000000    0.379274
      2          8           0        0.000000    1.268114   -0.402979
      3          8           0       -0.000000   -1.268114   -0.402979
 ---------------------------------------------------------------------

 SCF Done:  E(ROHF) =  -609.081463970     A.U. after   14 cycles

 The electronic state is 2-B1.
 Alpha  occ. eigenvalues -- -105.09854 -20.63984 -20.63982 -10.79930  -8.26701
 Alpha  occ. eigenvalues --   -8.26554  -8.26247  -1.54243  -1.39227  -1.00061
 Alpha  occ. eigenvalues --   -0.72745  -0.71900  -0.70402  -0.53593  -0.52890
 Alpha  occ. eigenvalues --   -0.50911  -0.15735
 Alpha virt. eigenvalues --    0.06462   0.07381   0.07432   0.07918   0.15030
 Alpha virt. eigenvalues --    0.15654   0.17065   0.17106   0.18352   0.19167
 Alpha virt. eigenvalues --    0.19553   0.22257   0.30008   0.33473   0.39767

 Mulliken charges and spin densities:
               1          2
     1  Cl   1.018294   0.467491
     2  O   -0.509147   0.266255
     3  O   -0.509147   0.266255
 Sum of Mulliken charges =  -0.00000   1.00000

 Dipole moment (field-independent basis, Debye):
    X=              0.0000    Y=             -0.0000    Z=              2.3163  Tot=              2.3163
 Quadrupole moment (field-independent basis, Debye-Ang):
   XX=            -21.6756   YY=            -27.2076   ZZ=            -22.2140
   XY=             -0.0000   XZ=             -0.0000   YZ=              0.0000

 Normal termination of Gaussian 16 at Sat Sep 30 08:55:24 2023.
