 Gaussian 16, Revision B.01,
 Gaussian 16:  ES64L-G16RevB.01 20-Dec-2017

 --------------------
 # b3lyp/gen opt freq
 --------------------

 -------------------------------
 chlorine dioxide, B3LYP/pcseg-2
 -------------------------------
 Symbolic Z-matrix:
 Charge =  0 Multiplicity = 2

 SCF Done:  E(UB3LYP) =  -610.556637292     A.U. after   13 cycles
 SCF Done:  E(UB3LYP) =  -610.556695679     A.U. after    8 cycles
 SCF Done:  E(UB3LYP) =  -610.556701354     A.U. after    7 cycles
 Optimization completed.
    -- Stationary point found.
 Normal termination of Gaussian 16 at Wed Jun 15 16:17:46 2022.

 ------------------------------------------------------------------
 #N Geom=AllCheck Guess=TCheck SCRF=Check GenChk UB3LYP/ChkBas Freq
 ------------------------------------------------------------------

 Structure from the checkpoint file:  "/wrk/irikura/Gau-24380.chk"
 -------------------------------
 chlorine dioxide, B3LYP/pcseg-2
 -------------------------------
 Charge =  0 Multiplicity = 2

                         Standard orientation:
 ---------------------------------------------------------------------
 Center     Atomic      Atomic             Coordinates (Angstroms)
 Number     Number       Type             X           Y           Z
 ---------------------------------------------------------------------
      1         17           0        0.000000    0.000000    0.379274
      2          8           0       -0.000000    1.268114   -0.402979
      3          8           0       -0.000000   -1.268114   -0.402979
 ---------------------------------------------------------------------

 SCF Done:  E(UB3LYP) =  -610.556701354     A.U. after    1 cycles

 The electronic state is 2-B1.
 Alpha  occ. eigenvalues -- -101.74197 -19.20410 -19.20409  -9.66381  -7.42523
 Alpha  occ. eigenvalues --   -7.42111  -7.41996  -1.21013  -1.07615  -0.76760
 Alpha  occ. eigenvalues --   -0.56289  -0.54686  -0.54375  -0.41242  -0.37308
 Alpha  occ. eigenvalues --   -0.37207  -0.28946
 Alpha virt. eigenvalues --   -0.02716  -0.00598   0.20356   0.24188   0.27211
 Alpha virt. eigenvalues --    0.30255   0.31994   0.32250   0.33573   0.34355
 Alpha virt. eigenvalues --    0.35555   0.44302   0.47266   0.48649   0.48914

  Beta  occ. eigenvalues -- -101.73892 -19.19380 -19.19378  -9.66096  -7.42372
  Beta  occ. eigenvalues --   -7.41851  -7.41108  -1.19563  -1.05692  -0.73970
  Beta  occ. eigenvalues --   -0.53838  -0.53149  -0.52209  -0.36299  -0.36194
  Beta  occ. eigenvalues --   -0.34683
  Beta virt. eigenvalues --   -0.17036  -0.01410   0.00162   0.20549   0.24995
  Beta virt. eigenvalues --    0.27551   0.30483   0.32445   0.32540   0.35655
  Beta virt. eigenvalues --    0.35939   0.36352   0.44519   0.48892   0.49510

 Mulliken charges and spin densities:
               1          2
     1  Cl   0.739002   0.326971
     2  O   -0.369501   0.336514
     3  O   -0.369501   0.336514
 Sum of Mulliken charges =  -0.00000   1.00000

 Dipole moment (field-independent basis, Debye):
    X=              0.0000    Y=             -0.0000    Z=              2.1150  Tot=              2.1150
 Quadrupole moment (field-independent basis, Debye-Ang):
   XX=            -21.7214   YY=            -27.0660   ZZ=            -22.2837
   XY=             -0.0000   XZ=             -0.0000   YZ=             -0.0000

  Exact polarizability:  11.655   0.000  38.095   0.000  -0.000  17.556
 Approx polarizability:  16.862   0.000  82.689   0.000  -0.000  27.369

                      1                      2                      3
                     A1                     A1                     B2
 Frequencies --    452.1442               945.7616              1084.4024
 Red. masses --     18.3554                18.3982                20.4083
 Frc consts  --      2.2109                 9.6959                14.1396
 IR Inten    --     18.0057                14.3008               103.2832

 - Thermochemistry -
 -------------------
 Temperature   298.150 Kelvin.  Pressure   1.00000 Atm.
 Atom     1 has atomic number 17 and mass  34.96885

 Molecular mass:    66.95868 amu.
 Principal axes and moments of inertia in atomic units:
                           1         2         3
     Eigenvalues --    36.50720 183.70733 220.21452
           X            0.00000   0.00000   1.00000
           Y            1.00000   0.00000  -0.00000
           Z            0.00000   1.00000   0.00000
 This molecule is an asymmetric top.
 Rotational symmetry number  2.
 Rotational temperatures (Kelvin)      2.37252     0.47148     0.39332
 Rotational constants (GHZ):          49.43522     9.82400     8.19538
 Zero-point vibrational energy      14847.5 (Joules/Mol)
                                    3.54864 (Kcal/Mol)
 Warning -- explicit consideration of   1 degrees of freedom as
           vibrations may cause significant error
 Vibrational temperatures:    650.53  1360.74  1560.21
          (Kelvin)

 Zero-point correction=                           0.005655 (Hartree/Particle)
 Thermal correction to Energy=                    0.008822
 Thermal correction to Enthalpy=                  0.009766
 Thermal correction to Gibbs Free Energy=        -0.019413
 Sum of electronic and zero-point Energies=           -610.551046
 Sum of electronic and thermal Energies=              -610.547880
 Sum of electronic and thermal Enthalpies=            -610.546936
 Sum of electronic and thermal Free Energies=         -610.576114

                     E (Thermal)             CV                S
                      KCal/Mol        Cal/Mol-Kelvin    Cal/Mol-Kelvin
 Total                    5.536              8.052             61.412
 Electronic               0.000              0.000              1.377
 Translational            0.889              2.981             38.522
 Rotational               0.889              2.981             20.540
 Vibrational              3.758              2.090              0.972
 Vibration     1          0.811              1.356              0.789

 Optimization completed.
    -- Stationary point found.
 Normal termination of Gaussian 16 at Wed Jun 15 16:17:56 2022.
