 Gaussian 16, Revision B.01,
 Gaussian 16:  ES64L-G16RevB.01 20-Dec-2017

 --------------------
 # b3lyp/gen opt freq
 --------------------

 -----------------------
 n-octane, B3LYP/pcseg-2
 -----------------------
 Symbolic Z-matrix:
 Charge =  0 Multiplicity = 1

 SCF Done:  E(RB3LYP) =  -315.840128494     A.U. after   11 cycles
 SCF Done:  E(RB3LYP) =  -315.840353430     A.U. after    7 cycles
 SCF Done:  E(RB3LYP) =  -315.840353797     A.U. after    5 cycles
 Optimization completed.
    -- Stationary point found.
 Normal termination of Gaussian 16 at Thu Jun 16 12:45:14 2022.

 ------------------------------------------------------------------
 #N Geom=AllCheck Guess=TCheck SCRF=Check GenChk RB3LYP/ChkBas Freq
 ------------------------------------------------------------------

 Structure from the checkpoint file:  "/wrk/irikura/Gau-7476.chk"
 -----------------------
 n-octane, B3LYP/pcseg-2
 -----------------------
 Charge =  0 Multiplicity = 1

                         Standard orientation:
 ---------------------------------------------------------------------
 Center     Atomic      Atomic             Coordinates (Angstroms)
 Number     Number       Type             X           Y           Z
 ---------------------------------------------------------------------
      1          6           0        0.000513    0.764617    0.000000
      2          6           0       -0.000513   -0.764617    0.000000
      3          6           0       -1.399202    1.379870    0.000000
      4          6           0        1.399202   -1.379870    0.000000
      5          6           0       -1.399202    2.909095    0.000000
      6          6           0        1.399202   -2.909095    0.000000
      7          6           0       -2.802179    3.513938    0.000000
      8          6           0        2.802179   -3.513938    0.000000
      9          1           0        0.552682    1.124823    0.874437
     10          1           0        0.552682    1.124823   -0.874437
     11          1           0       -0.552682   -1.124823    0.874437
     12          1           0       -0.552682   -1.124823   -0.874437
     13          1           0       -1.952181    1.020402   -0.874418
     14          1           0       -1.952181    1.020402    0.874418
     15          1           0        1.952181   -1.020402   -0.874418
     16          1           0        1.952181   -1.020402    0.874418
     17          1           0       -0.847354    3.268436    0.873843
     18          1           0       -0.847354    3.268436   -0.873843
     19          1           0        0.847354   -3.268436    0.873843
     20          1           0        0.847354   -3.268436   -0.873843
     21          1           0       -2.767833    4.604253    0.000000
     22          1           0       -3.366728    3.200454   -0.880529
     23          1           0       -3.366728    3.200454    0.880529
     24          1           0        2.767833   -4.604253    0.000000
     25          1           0        3.366728   -3.200454   -0.880529
     26          1           0        3.366728   -3.200454    0.880529
 ---------------------------------------------------------------------

 SCF Done:  E(RB3LYP) =  -315.840353797     A.U. after    1 cycles

 The electronic state is 1-AG.
 Alpha  occ. eigenvalues --  -10.16271 -10.16271 -10.16086 -10.16069 -10.16052
 Alpha  occ. eigenvalues --  -10.16046 -10.15636 -10.15636  -0.81144  -0.78798
 Alpha  occ. eigenvalues --   -0.75013  -0.70064  -0.64460  -0.59416  -0.57714
 Alpha  occ. eigenvalues --   -0.57303  -0.48538  -0.46426  -0.43901  -0.43223
 Alpha  occ. eigenvalues --   -0.42036  -0.41497  -0.39467  -0.38651  -0.35935
 Alpha  occ. eigenvalues --   -0.35748  -0.35415  -0.33430  -0.33305  -0.32500
 Alpha  occ. eigenvalues --   -0.32301  -0.32159  -0.30488
 Alpha virt. eigenvalues --    0.01433   0.02176   0.03302   0.03483   0.03589
 Alpha virt. eigenvalues --    0.05387   0.05751   0.06008   0.08260   0.08576
 Alpha virt. eigenvalues --    0.08953   0.09170   0.10011   0.11063   0.11564

 Mulliken charges:
               1
     1  C   -0.007426
     2  C   -0.007426
     3  C   -0.016720
     4  C   -0.016720
     5  C   -0.008615
     6  C   -0.008615
     7  C   -0.075155
     8  C   -0.075155
     9  H    0.005787
    10  H    0.005787
    11  H    0.005787
    12  H    0.005787
    13  H    0.005186
    14  H    0.005186
    15  H    0.005186
    16  H    0.005186
    17  H    0.010074
    18  H    0.010074
    19  H    0.010074
    20  H    0.010074
    21  H    0.029235
    22  H    0.018294
    23  H    0.018294
    24  H    0.029235
    25  H    0.018294
    26  H    0.018294
 Sum of Mulliken charges =  -0.00000

 Dipole moment (field-independent basis, Debye):
    X=             -0.0000    Y=              0.0000    Z=              0.0000  Tot=              0.0000
 Quadrupole moment (field-independent basis, Debye-Ang):
   XX=            -57.6194   YY=            -56.6371   ZZ=            -54.6622
   XY=              0.6327   XZ=             -0.0000   YZ=              0.0000

  Exact polarizability: 105.246 -16.698 114.786   0.000   0.000  86.379
 Approx polarizability: 135.364   0.550 134.414   0.000  -0.000 133.244

                      1                      2                      3
                     AU                     AU                     BU
 Frequencies --     46.6989                68.2722                76.4896
 Red. masses --      2.9667                 1.5017                 3.1679
 Frc consts  --      0.0038                 0.0041                 0.0109
 IR Inten    --      0.0097                 0.0065                 0.0015

                      4                      5                      6
                     BG                     BG                     AU
 Frequencies --    109.6481               135.8614               159.6494
 Red. masses --      2.3602                 1.6677                 2.0410
 Frc consts  --      0.0167                 0.0181                 0.0306
 IR Inten    --      0.0000                 0.0000                 0.0021

                      7                      8                      9
                     AG                     AU                     BG
 Frequencies --    194.2088               241.7399               244.8098
 Red. masses --      2.8541                 1.1060                 1.1322
 Frc consts  --      0.0634                 0.0381                 0.0400
 IR Inten    --      0.0000                 0.0002                 0.0000

                     10                     11                     12
                     AG                     BU                     BU
 Frequencies --    273.6045               337.9235               469.4914
 Red. masses --      3.8923                 2.6285                 3.2174
 Frc consts  --      0.1717                 0.1768                 0.4178
 IR Inten    --      0.0000                 0.0148                 0.1325

                     13                     14                     15
                     AG                     AU                     BG
 Frequencies --    471.2834               731.8246               735.6628
 Red. masses --      2.6261                 1.0588                 1.0762
 Frc consts  --      0.3437                 0.3341                 0.3432
 IR Inten    --      0.0000                 5.5589                 0.0000

                     16                     17                     18
                     AU                     BG                     AU
 Frequencies --    756.6907               807.2479               881.6369
 Red. masses --      1.1143                 1.1636                 1.1920
 Frc consts  --      0.3759                 0.4467                 0.5459
 IR Inten    --      1.0634                 0.0000                 0.5757

                     19                     20                     21
                     BU                     AG                     BG
 Frequencies --    889.6698               904.7183               964.1195
 Red. masses --      1.9564                 2.0111                 1.1760
 Frc consts  --      0.9123                 0.9698                 0.6440
 IR Inten    --      2.5407                 0.0000                 0.0000

                     22                     23                     24
                     AG                     BU                     AU
 Frequencies --   1003.3633              1009.9176              1039.1333
 Red. masses --      2.9502                 3.9496                 1.0978
 Frc consts  --      1.7499                 2.3734                 0.6984
 IR Inten    --      0.0000                 0.5377                 0.1447

                     25                     26                     27
                     AG                     BU                     AG
 Frequencies --   1050.0863              1062.9906              1065.7253
 Red. masses --      2.8996                 2.4730                 2.2012
 Frc consts  --      1.8838                 1.6464                 1.4730
 IR Inten    --      0.0000                 0.2208                 0.0000

                     28                     29                     30
                     BU                     AG                     BG
 Frequencies --   1100.5380              1155.3906              1207.0818
 Red. masses --      1.8007                 2.7736                 1.9146
 Frc consts  --      1.2850                 2.1815                 1.6436
 IR Inten    --      4.1055                 0.0000                 0.0000

                     31                     32                     33
                     AU                     BU                     BG
 Frequencies --   1236.8516              1255.6668              1281.2779
 Red. masses --      1.5196                 1.3013                 1.3168
 Frc consts  --      1.3696                 1.2088                 1.2736
 IR Inten    --      0.0004                 1.8055                 0.0000

                     34                     35                     36
                     AG                     AU                     BG
 Frequencies --   1307.3807              1317.7873              1328.0408
 Red. masses --      1.3137                 1.1998                 1.0257
 Frc consts  --      1.3230                 1.2276                 1.0659
 IR Inten    --      0.0000                 0.4665                 0.0000

                     37                     38                     39
                     AU                     BG                     BU
 Frequencies --   1337.9850              1338.0319              1353.5954
 Red. masses --      1.0680                 1.1218                 1.3666
 Frc consts  --      1.1265                 1.1833                 1.4752
 IR Inten    --      0.6334                 0.0000                 1.7486

                     40                     41                     42
                     AG                     AG                     BU
 Frequencies --   1387.0558              1397.7187              1399.9854
 Red. masses --      1.4659                 1.5919                 1.5542
 Frc consts  --      1.6616                 1.8324                 1.7947
 IR Inten    --      0.0000                 0.0000                 2.5328

                     43                     44                     45
                     BU                     AG                     BU
 Frequencies --   1414.4921              1414.7949              1483.9019
 Red. masses --      1.2375                 1.2525                 1.0740
 Frc consts  --      1.4588                 1.4771                 1.3934
 IR Inten    --      3.1565                 0.0000                 0.0889

                     46                     47                     48
                     AG                     AG                     BU
 Frequencies --   1484.7132              1487.5975              1491.4577
 Red. masses --      1.0730                 1.0665                 1.0613
 Frc consts  --      1.3936                 1.3905                 1.3910
 IR Inten    --      0.0000                 0.0000                 1.2329

                     49                     50                     51
                     AG                     BG                     AU
 Frequencies --   1497.6082              1498.8917              1498.9113
 Red. masses --      1.0651                 1.0399                 1.0399
 Frc consts  --      1.4074                 1.3766                 1.3766
 IR Inten    --      0.0000                 0.0000                14.7204

                     52                     53                     54
                     BU                     AG                     BU
 Frequencies --   1504.7123              1511.6485              1516.6694
 Red. masses --      1.0792                 1.0906                 1.0971
 Frc consts  --      1.4397                 1.4683                 1.4869
 IR Inten    --      2.4067                 0.0000                13.8964

                     55                     56                     57
                     BU                     AG                     AG
 Frequencies --   2993.8213              2995.6212              2997.1968
 Red. masses --      1.0572                 1.0573                 1.0579
 Frc consts  --      5.5827                 5.5903                 5.5993
 IR Inten    --      1.6047                 0.0000                 0.0000

                     58                     59                     60
                     BU                     BG                     AG
 Frequencies --   3003.8572              3009.7664              3010.6913
 Red. masses --      1.0590                 1.0986                 1.0597
 Frc consts  --      5.6301                 5.8634                 5.6593
 IR Inten    --      5.2844                 0.0000                 0.0000

                     61                     62                     63
                     AU                     BU                     BG
 Frequencies --   3013.0348              3013.7782              3022.0828
 Red. masses --      1.1001                 1.0593                 1.1025
 Frc consts  --      5.8844                 5.6687                 5.9326
 IR Inten    --      0.1320               166.0629                 0.0000

                     64                     65                     66
                     BU                     AG                     AU
 Frequencies --   3023.0889              3023.1836              3034.0754
 Red. masses --      1.0356                 1.0354                 1.1045
 Frc consts  --      5.5764                 5.5757                 5.9904
 IR Inten    --     95.0136                 0.0000                 1.1350

                     67                     68                     69
                     BG                     AU                     BG
 Frequencies --   3045.1948              3054.8912              3082.2246
 Red. masses --      1.1054                 1.1053                 1.1024
 Frc consts  --      6.0394                 6.0775                 6.1705
 IR Inten    --      0.0000               127.0083                 0.0000

                     70                     71                     72
                     AU                     BU                     AG
 Frequencies --   3082.4378              3087.3533              3087.3736
 Red. masses --      1.1024                 1.1009                 1.1009
 Frc consts  --      6.1712                 6.1826                 6.1825
 IR Inten    --    132.8826                84.7262                 0.0000

 - Thermochemistry -
 -------------------
 Temperature   298.150 Kelvin.  Pressure   1.00000 Atm.
 Atom     1 has atomic number  6 and mass  12.00000

 Molecular mass:   114.14085 amu.
 Principal axes and moments of inertia in atomic units:
                           1         2         3
     Eigenvalues --   167.000023701.735263780.39607
           X           -0.57622   0.81729   0.00000
           Y            0.81729   0.57622   0.00000
           Z           -0.00000   0.00000   1.00000
 This molecule is an asymmetric top.
 Rotational symmetry number  2.
 Rotational temperatures (Kelvin)      0.51865     0.02340     0.02291
 Rotational constants (GHZ):          10.80683     0.48754     0.47739
 Zero-point vibrational energy     643123.9 (Joules/Mol)
                                  153.71031 (Kcal/Mol)
 Warning -- explicit consideration of  13 degrees of freedom as
           vibrations may cause significant error
 Vibrational temperatures:     67.19    98.23   110.05   157.76   195.47
          (Kelvin)            229.70   279.42   347.81   352.23   393.66
                              486.20   675.49   678.07  1052.93  1058.45
                             1088.71  1161.45  1268.48  1280.04  1301.69
                             1387.15  1443.62  1453.05  1495.08  1510.84
                             1529.41  1533.34  1583.43  1662.35  1736.72
                             1779.55  1806.62  1843.47  1881.03  1896.00
                             1910.75  1925.06  1925.13  1947.52  1995.66
                             2011.01  2014.27  2035.14  2035.57  2135.00
                             2136.17  2140.32  2145.87  2154.72  2156.57
                             2156.60  2164.95  2174.93  2182.15  4307.44
                             4310.03  4312.30  4321.88  4330.38  4331.71
                             4335.09  4336.15  4348.10  4349.55  4349.69
                             4365.36  4381.36  4395.31  4434.63  4434.94
                             4442.01  4442.04

 Zero-point correction=                           0.244953 (Hartree/Particle)
 Thermal correction to Energy=                    0.256117
 Thermal correction to Enthalpy=                  0.257061
 Thermal correction to Gibbs Free Energy=         0.208398
 Sum of electronic and zero-point Energies=           -315.595401
 Sum of electronic and thermal Energies=              -315.584237
 Sum of electronic and thermal Enthalpies=            -315.583293
 Sum of electronic and thermal Free Energies=         -315.631956

                     E (Thermal)             CV                S
                      KCal/Mol        Cal/Mol-Kelvin    Cal/Mol-Kelvin
 Total                  160.716             39.161            102.420
 Electronic               0.000              0.000              0.000
 Translational            0.889              2.981             40.112
 Rotational               0.889              2.981             27.860
 Vibrational            158.938             33.199             34.448
 Vibration     1          0.595              1.979              4.953
 Vibration     2          0.598              1.969              4.203
 Vibration     3          0.599              1.965              3.979
 Vibration     4          0.606              1.941              3.275
 Vibration     5          0.614              1.918              2.861
 Vibration     6          0.622              1.892              2.554
 Vibration     7          0.635              1.848              2.187
 Vibration     8          0.658              1.776              1.790
 Vibration     9          0.660              1.771              1.768
 Vibration    10          0.676              1.722              1.573
 Vibration    11          0.718              1.600              1.222
 Vibration    12          0.827              1.318              0.739
 Vibration    13          0.828              1.314              0.734

 Optimization completed.
    -- Stationary point found.
 Normal termination of Gaussian 16 at Thu Jun 16 12:56:03 2022.
