 Gaussian 16, Revision B.01,

 ---------------------------------------
 # b3lyp/gen opt freq CPHF(Grid=OneStep)
 ---------------------------------------

 -----------------
 OH, B3LYP/pcseg-2
 -----------------
 Symbolic Z-matrix:
 Charge =  0 Multiplicity = 2

 SCF Done:  E(UB3LYP) =  -75.7697108273     A.U. after   11 cycles
 Optimization completed.
    -- Stationary point found.
 Normal termination of Gaussian 16 at Sat Sep 30 12:40:32 2023.

 ------------------------------------------------------------------
 #N Geom=AllCheck Guess=TCheck SCRF=Check GenChk UB3LYP/ChkBas Freq
 ------------------------------------------------------------------

 Structure from the checkpoint file:  "oh.chk"
 -----------------
 OH, B3LYP/pcseg-2
 -----------------
 Charge =  0 Multiplicity = 2

 SCF Done:  E(UB3LYP) =  -75.7697108273     A.U. after    1 cycles

  Exact polarizability:   4.031   0.000   4.878   0.000   0.000   7.415
 Approx polarizability:   4.623  -0.000   5.079  -0.000  -0.000   9.192

                      1
                     SG
 Frequencies --   3702.9506
 Red. masses --      1.0671
 Frc consts  --      8.6208
 IR Inten    --     12.3271

 - Thermochemistry -
 -------------------
 Temperature   298.150 Kelvin.  Pressure   1.00000 Atm.
 Atom     1 has atomic number  1 and mass   1.00783

 Molecular mass:    17.00274 amu.
 Principal axes and moments of inertia in atomic units:
                           1         2         3
     Eigenvalues --     0.00000   3.21222   3.21222
           X            0.00000  -0.00000   1.00000
           Y            0.00000   1.00000   0.00000
           Z            1.00000   0.00000   0.00000
 This molecule is a prolate symmetric top.
 Rotational symmetry number  1.
 Rotational temperature (Kelvin)     26.96391
 Rotational constant (GHZ):         561.836695
 Zero-point vibrational energy      22148.6 (Joules/Mol)
                                    5.29363 (Kcal/Mol)
 Vibrational temperatures:   5327.72
          (Kelvin)

 Zero-point correction=                           0.008436 (Hartree/Particle)
 Thermal correction to Energy=                    0.010796
 Thermal correction to Enthalpy=                  0.011741
 Thermal correction to Gibbs Free Energy=        -0.008489
 Sum of electronic and zero-point Energies=            -75.761275
 Sum of electronic and thermal Energies=               -75.758914
 Sum of electronic and thermal Enthalpies=             -75.757970
 Sum of electronic and thermal Free Energies=          -75.778200

                     E (Thermal)             CV                S
                      KCal/Mol        Cal/Mol-Kelvin    Cal/Mol-Kelvin
 Total                    6.775              4.968             42.577
 Electronic               0.000              0.000              1.377
 Translational            0.889              2.981             34.437
 Rotational               0.592              1.987              6.763
 Vibrational              5.294              0.000              0.000

 Optimization completed.
    -- Stationary point found.
 Normal termination of Gaussian 16 at Sat Sep 30 12:40:37 2023.
 Gaussian 16:  ES64L-G16RevB.01 20-Dec-2017

 ---------------------------------
 # rohf/gen geom=check guess=check
 ---------------------------------

 --------------------
 OH, ROHF/cc-pVTZ-F12
 --------------------
 Structure from the checkpoint file:  "oh.chk"
 Charge =  0 Multiplicity = 2

                         Standard orientation:
 ---------------------------------------------------------------------
 Center     Atomic      Atomic             Coordinates (Angstroms)
 Number     Number       Type             X           Y           Z
 ---------------------------------------------------------------------
      1          1           0        0.000000    0.000000   -0.865819
      2          8           0        0.000000    0.000000    0.108227
 ---------------------------------------------------------------------

 SCF Done:  E(ROHF) =  -75.4210117217     A.U. after   10 cycles

 Unable to determine electronic state:  partially filled degenerate orbitals.
 Alpha  occ. eigenvalues --  -20.61417  -1.28327  -0.65308  -0.53142  -0.16410
 Alpha virt. eigenvalues --    0.10605   0.13821   0.14291   0.14568   0.23324
 Alpha virt. eigenvalues --    0.47569   0.48229   0.52409   0.59041   0.70484
 Alpha virt. eigenvalues --    0.71770   0.81254   0.96748   1.08418   1.08470

 Mulliken charges and spin densities:
               1          2
     1  H    0.364104   0.018900
     2  O   -0.364104   0.981100
 Sum of Mulliken charges =  -0.00000   1.00000

 Dipole moment (field-independent basis, Debye):
    X=              0.0000    Y=             -0.0000    Z=             -1.7688  Tot=              1.7688
 Quadrupole moment (field-independent basis, Debye-Ang):
   XX=             -5.4272   YY=             -6.7119   ZZ=             -4.5178
   XY=              0.0000   XZ=              0.0000   YZ=              0.0000

 Normal termination of Gaussian 16 at Sat Sep 30 12:40:39 2023.
