 Gaussian 16, Revision B.01,
 Gaussian 16:  ES64L-G16RevB.01 20-Dec-2017

 --------------------
 # b3lyp/gen opt freq
 --------------------

 -----------------
 OH, B3LYP/pcseg-2
 -----------------
 Symbolic Z-matrix:
 Charge =  0 Multiplicity = 2

 SCF Done:  E(UB3LYP) =  -75.7691530992     A.U. after   11 cycles
 SCF Done:  E(UB3LYP) =  -75.7697088566     A.U. after    9 cycles
 SCF Done:  E(UB3LYP) =  -75.7697108273     A.U. after    7 cycles
 Optimization completed.
    -- Stationary point found.
 Normal termination of Gaussian 16 at Tue Jun 14 19:57:31 2022.

 ------------------------------------------------------------------
 #N Geom=AllCheck Guess=TCheck SCRF=Check GenChk UB3LYP/ChkBas Freq
 ------------------------------------------------------------------

 Structure from the checkpoint file:  "/wrk/irikura/Gau-7610.chk"
 -----------------
 OH, B3LYP/pcseg-2
 -----------------
 Charge =  0 Multiplicity = 2

                         Standard orientation:
 ---------------------------------------------------------------------
 Center     Atomic      Atomic             Coordinates (Angstroms)
 Number     Number       Type             X           Y           Z
 ---------------------------------------------------------------------
      1          1           0        0.000000    0.000000   -0.865819
      2          8           0        0.000000    0.000000    0.108227
 ---------------------------------------------------------------------

 SCF Done:  E(UB3LYP) =  -75.7697108273     A.U. after    1 cycles

 Unable to determine electronic state:  an orbital has unidentified symmetry.
 Alpha  occ. eigenvalues --  -19.20520  -1.02639  -0.48700  -0.42685  -0.35476
 Alpha virt. eigenvalues --    0.00288   0.27368   0.30614   0.32490   0.32884
 Alpha virt. eigenvalues --    0.49481   0.77096   0.78739   1.11226   1.38342
 Alpha virt. eigenvalues --    1.42431   1.42763   1.74385   1.78128   1.96063

  Beta  occ. eigenvalues --  -19.17884  -0.95587  -0.46129  -0.32892
  Beta virt. eigenvalues --   -0.18248   0.00771   0.27961   0.33161   0.33524
  Beta virt. eigenvalues --    0.35563   0.51126   0.78621   0.78746   1.11611
  Beta virt. eigenvalues --    1.39581   1.47684   1.48294   1.78728   1.79325

 Mulliken charges and spin densities:
               1          2
     1  H    0.210220  -0.014024
     2  O   -0.210220   1.014024
 Sum of Mulliken charges =   0.00000   1.00000

 Dipole moment (field-independent basis, Debye):
    X=              0.0000    Y=              0.0000    Z=             -1.7351  Tot=              1.7351
 Quadrupole moment (field-independent basis, Debye-Ang):
   XX=             -6.8469   YY=             -5.5396   ZZ=             -4.7192
   XY=              0.0000   XZ=              0.0000   YZ=              0.0000

  Exact polarizability:   4.878  -0.000   4.031   0.000   0.000   7.414
 Approx polarizability:   5.079  -0.000   4.623  -0.000  -0.000   9.192

                      1
                     SG
 Frequencies --   3702.9409
 Red. masses --      1.0671
 Frc consts  --      8.6208
 IR Inten    --     12.3265

 - Thermochemistry -
 -------------------
 Temperature   298.150 Kelvin.  Pressure   1.00000 Atm.
 Atom     1 has atomic number  1 and mass   1.00783

 Molecular mass:    17.00274 amu.
 Principal axes and moments of inertia in atomic units:
                           1         2         3
     Eigenvalues --     0.00000   3.21222   3.21222
           X            0.00000  -0.00000   1.00000
           Y            0.00000   1.00000   0.00000
           Z            1.00000   0.00000   0.00000
 This molecule is a prolate symmetric top.
 Rotational symmetry number  1.
 Rotational temperature (Kelvin)     26.96389
 Rotational constant (GHZ):         561.836184
 Zero-point vibrational energy      22148.5 (Joules/Mol)
                                    5.29362 (Kcal/Mol)
 Vibrational temperatures:   5327.71
          (Kelvin)

 Zero-point correction=                           0.008436 (Hartree/Particle)
 Thermal correction to Energy=                    0.010796
 Thermal correction to Enthalpy=                  0.011741
 Thermal correction to Gibbs Free Energy=        -0.008489
 Sum of electronic and zero-point Energies=            -75.761275
 Sum of electronic and thermal Energies=               -75.758914
 Sum of electronic and thermal Enthalpies=             -75.757970
 Sum of electronic and thermal Free Energies=          -75.778200

                     E (Thermal)             CV                S
                      KCal/Mol        Cal/Mol-Kelvin    Cal/Mol-Kelvin
 Total                    6.775              4.968             42.577
 Electronic               0.000              0.000              1.377
 Translational            0.889              2.981             34.437
 Rotational               0.592              1.987              6.763
 Vibrational              5.294              0.000              0.000

 Optimization completed.
    -- Stationary point found.
 Normal termination of Gaussian 16 at Tue Jun 14 19:57:38 2022.
