 Gaussian 16, Revision B.01,
 Gaussian 16:  ES64L-G16RevB.01 20-Dec-2017

 --------------------
 # b3lyp/gen opt freq
 --------------------

 -----------------------
 NO dimer, B3LYP/pcseg-2
 -----------------------
 Symbolic Z-matrix:
 Charge =  0 Multiplicity = 1

 SCF Done:  E(RB3LYP) =  -259.885695017     A.U. after   11 cycles
 SCF Done:  E(RB3LYP) =  -259.885920070     A.U. after   10 cycles
 SCF Done:  E(RB3LYP) =  -259.885955821     A.U. after    8 cycles
 SCF Done:  E(RB3LYP) =  -259.885957309     A.U. after    7 cycles
 SCF Done:  E(RB3LYP) =  -259.885958404     A.U. after    7 cycles
 Optimization completed.
    -- Stationary point found.
 Normal termination of Gaussian 16 at Fri Jun 17 20:32:33 2022.

 ------------------------------------------------------------------
 #N Geom=AllCheck Guess=TCheck SCRF=Check GenChk RB3LYP/ChkBas Freq
 ------------------------------------------------------------------

 Structure from the checkpoint file:  "/wrk/irikura/Gau-26804.chk"
 -----------------------
 NO dimer, B3LYP/pcseg-2
 -----------------------
 Charge =  0 Multiplicity = 1

                         Standard orientation:
 ---------------------------------------------------------------------
 Center     Atomic      Atomic             Coordinates (Angstroms)
 Number     Number       Type             X           Y           Z
 ---------------------------------------------------------------------
      1          8           0        0.000000    1.213663   -0.524765
      2          8           0       -0.000000   -1.213663   -0.524765
      3          7           0       -0.000000    0.987561    0.599732
      4          7           0       -0.000000   -0.987561    0.599732
 ---------------------------------------------------------------------

 SCF Done:  E(RB3LYP) =  -259.885958404     A.U. after    1 cycles

 The electronic state is 1-A1.
 Alpha  occ. eigenvalues --  -19.26186 -19.26185 -14.47001 -14.46999  -1.26590
 Alpha  occ. eigenvalues --   -1.24133  -0.71358  -0.66075  -0.57642  -0.53456
 Alpha  occ. eigenvalues --   -0.50966  -0.50661  -0.48400  -0.42817  -0.21911
 Alpha virt. eigenvalues --   -0.13571  -0.09036  -0.03681   0.12622   0.19097
 Alpha virt. eigenvalues --    0.20931   0.21912   0.23906   0.27623   0.28981
 Alpha virt. eigenvalues --    0.33362   0.35170   0.36409   0.40936   0.43456

 Mulliken charges:
               1
     1  O   -0.088562
     2  O   -0.088562
     3  N    0.088562
     4  N    0.088562
 Sum of Mulliken charges =   0.00000

 Dipole moment (field-independent basis, Debye):
    X=              0.0000    Y=             -0.0000    Z=              0.0020  Tot=              0.0020
 Quadrupole moment (field-independent basis, Debye-Ang):
   XX=            -19.2325   YY=            -22.7346   ZZ=            -23.1767
   XY=             -0.0000   XZ=             -0.0000   YZ=             -0.0000

  Exact polarizability:  13.936  -0.000  45.579  -0.000   0.000  24.079
 Approx polarizability:  20.091   0.000 102.599   0.000  -0.000  46.470

                      1                      2                      3
                     A2                     A1                     A1
 Frequencies --    234.2162               295.7791               407.4234
 Red. masses --     14.6736                15.9714                14.0176
 Frc consts  --      0.4743                 0.8232                 1.3709
 IR Inten    --      0.0000                 0.1170                 1.9431

                      4                      5                      6
                     B2                     B2                     A1
 Frequencies --    721.1754              1764.7615              1941.8355
 Red. masses --     14.7489                14.8565                14.8714
 Frc consts  --      4.5195                27.2608                33.0389
 IR Inten    --      1.0864               789.0066                52.1208

 - Thermochemistry -
 -------------------
 Temperature   298.150 Kelvin.  Pressure   1.00000 Atm.
 Atom     1 has atomic number  8 and mass  15.99491

 Molecular mass:    59.99598 amu.
 Principal axes and moments of inertia in atomic units:
                           1         2         3
     Eigenvalues --    67.43066 265.80875 333.23941
           X            0.00000   0.00000   1.00000
           Y            1.00000   0.00000   0.00000
           Z            0.00000   1.00000   0.00000
 This molecule is an asymmetric top.
 Rotational symmetry number  2.
 Rotational temperatures (Kelvin)      1.28449     0.32585     0.25992
 Rotational constants (GHZ):          26.76440     6.78962     5.41575
 Zero-point vibrational energy      32091.0 (Joules/Mol)
                                    7.66993 (Kcal/Mol)
 Warning -- explicit consideration of   3 degrees of freedom as
           vibrations may cause significant error
 Vibrational temperatures:    336.98   425.56   586.19  1037.61  2539.10
          (Kelvin)           2793.87

 Zero-point correction=                           0.012223 (Hartree/Particle)
 Thermal correction to Energy=                    0.016399
 Thermal correction to Enthalpy=                  0.017343
 Thermal correction to Gibbs Free Energy=        -0.013367
 Sum of electronic and zero-point Energies=           -259.873736
 Sum of electronic and thermal Energies=              -259.869560
 Sum of electronic and thermal Enthalpies=            -259.868615
 Sum of electronic and thermal Free Energies=         -259.899325

                     E (Thermal)             CV                S
                      KCal/Mol        Cal/Mol-Kelvin    Cal/Mol-Kelvin
 Total                   10.290             11.719             64.634
 Electronic               0.000              0.000              0.000
 Translational            0.889              2.981             38.195
 Rotational               0.889              2.981             21.928
 Vibrational              8.513              5.757              4.510
 Vibration     1          0.654              1.789              1.846
 Vibration     2          0.690              1.682              1.441
 Vibration     3          0.772              1.454              0.936

 Optimization completed.
    -- Stationary point found.
 Normal termination of Gaussian 16 at Fri Jun 17 20:32:44 2022.
