 Gaussian 16, Revision B.01,

 ---------------------------------------
 # b3lyp/gen opt freq CPHF(Grid=OneStep)
 ---------------------------------------

 -----------------------
 NO dimer, B3LYP/pcseg-2
 -----------------------
 Symbolic Z-matrix:
 Charge =  0 Multiplicity = 1

 SCF Done:  E(RB3LYP) =  -259.885958404     A.U. after   11 cycles
 Optimization completed.
    -- Stationary point found.
 Normal termination of Gaussian 16 at Sat Sep 30 10:02:47 2023.

 ------------------------------------------------------------------
 #N Geom=AllCheck Guess=TCheck SCRF=Check GenChk RB3LYP/ChkBas Freq
 ------------------------------------------------------------------

 Structure from the checkpoint file:  "onno.chk"
 -----------------------
 NO dimer, B3LYP/pcseg-2
 -----------------------
 Charge =  0 Multiplicity = 1

 SCF Done:  E(RB3LYP) =  -259.885958404     A.U. after    1 cycles

  Exact polarizability:  13.936   0.000  45.579   0.000   0.000  24.079
 Approx polarizability:  20.091   0.000 102.599   0.000   0.000  46.470

                      1                      2                      3
                     A2                     A1                     A1
 Frequencies --    234.2073               295.7822               407.4325
 Red. masses --     14.6736                15.9714                14.0176
 Frc consts  --      0.4742                 0.8233                 1.3710
 IR Inten    --      0.0000                 0.1169                 1.9433

                      4                      5                      6
                     B2                     B2                     A1
 Frequencies --    721.1686              1764.6528              1941.8359
 Red. masses --     14.7489                14.8565                14.8714
 Frc consts  --      4.5194                27.2575                33.0390
 IR Inten    --      1.0856               789.0208                52.1173

 - Thermochemistry -
 -------------------
 Temperature   298.150 Kelvin.  Pressure   1.00000 Atm.
 Atom     1 has atomic number  8 and mass  15.99491

 Molecular mass:    59.99598 amu.
 Principal axes and moments of inertia in atomic units:
                           1         2         3
     Eigenvalues --    67.43067 265.80884 333.23951
           X            0.00000   0.00000   1.00000
           Y            1.00000   0.00000   0.00000
           Z            0.00000   1.00000   0.00000
 This molecule is an asymmetric top.
 Rotational symmetry number  2.
 Rotational temperatures (Kelvin)      1.28449     0.32585     0.25991
 Rotational constants (GHZ):          26.76439     6.78962     5.41575
 Zero-point vibrational energy      32090.3 (Joules/Mol)
                                    7.66977 (Kcal/Mol)
 Warning -- explicit consideration of   3 degrees of freedom as
           vibrations may cause significant error
 Vibrational temperatures:    336.97   425.56   586.20  1037.60  2538.94
          (Kelvin)           2793.87

 Zero-point correction=                           0.012223 (Hartree/Particle)
 Thermal correction to Energy=                    0.016399
 Thermal correction to Enthalpy=                  0.017343
 Thermal correction to Gibbs Free Energy=        -0.013367
 Sum of electronic and zero-point Energies=           -259.873736
 Sum of electronic and thermal Energies=              -259.869560
 Sum of electronic and thermal Enthalpies=            -259.868616
 Sum of electronic and thermal Free Energies=         -259.899325

                     E (Thermal)             CV                S
                      KCal/Mol        Cal/Mol-Kelvin    Cal/Mol-Kelvin
 Total                   10.290             11.719             64.634
 Electronic               0.000              0.000              0.000
 Translational            0.889              2.981             38.195
 Rotational               0.889              2.981             21.928
 Vibrational              8.513              5.757              4.510
 Vibration     1          0.654              1.789              1.846
 Vibration     2          0.690              1.682              1.441
 Vibration     3          0.772              1.454              0.936

 Optimization completed.
    -- Stationary point found.
 Normal termination of Gaussian 16 at Sat Sep 30 10:03:19 2023.
 Gaussian 16:  ES64L-G16RevB.01 20-Dec-2017

 ---------------------------------
 # rohf/gen geom=check guess=check
 ---------------------------------

 --------------------------
 NO dimer, ROHF/cc-pVTZ-F12
 --------------------------
 Structure from the checkpoint file:  "onno.chk"
 Charge =  0 Multiplicity = 1

                         Standard orientation:
 ---------------------------------------------------------------------
 Center     Atomic      Atomic             Coordinates (Angstroms)
 Number     Number       Type             X           Y           Z
 ---------------------------------------------------------------------
      1          8           0        0.000000    1.213663   -0.524765
      2          8           0       -0.000000   -1.213663   -0.524765
      3          7           0        0.000000    0.987561    0.599732
      4          7           0       -0.000000   -0.987561    0.599732
 ---------------------------------------------------------------------

 SCF Done:  E(ROHF) =  -258.522093546     A.U. after   13 cycles

 The electronic state is 1-A1.
 Alpha  occ. eigenvalues --  -20.70265 -20.70264 -15.75843 -15.75831  -1.62971
 Alpha  occ. eigenvalues --   -1.59987  -0.98124  -0.91198  -0.78688  -0.72003
 Alpha  occ. eigenvalues --   -0.68842  -0.68088  -0.64639  -0.61245  -0.32592
 Alpha virt. eigenvalues --    0.04214   0.07722   0.08079   0.09538   0.10203
 Alpha virt. eigenvalues --    0.10740   0.11015   0.13306   0.14412   0.14426
 Alpha virt. eigenvalues --    0.17232   0.17575   0.19179   0.21356   0.21872

 Mulliken charges and spin densities:
               1          2
     1  O   -0.178775   0.000000
     2  O   -0.178775   0.000000
     3  N    0.178775   0.000000
     4  N    0.178775   0.000000
 Sum of Mulliken charges =  -0.00000   0.00000

 Dipole moment (field-independent basis, Debye):
    X=              0.0000    Y=             -0.0000    Z=              0.4196  Tot=              0.4196
 Quadrupole moment (field-independent basis, Debye-Ang):
   XX=            -19.3491   YY=            -22.8335   ZZ=            -22.9532
   XY=             -0.0000   XZ=             -0.0000   YZ=              0.0000

 Normal termination of Gaussian 16 at Sat Sep 30 10:03:27 2023.
