 Gaussian 16, Revision B.01,
 Gaussian 16:  ES64L-G16RevB.01 20-Dec-2017

 --------------------
 # b3lyp/gen opt freq
 --------------------

 -------------------------------
 nitrosyl nitrate, B3LYP/pcseg-2
 -------------------------------
 Symbolic Z-matrix:
 Charge =  0 Multiplicity = 1

 SCF Done:  E(RB3LYP) =  -410.315513295     A.U. after   19 cycles
 SCF Done:  E(RB3LYP) =  -410.329705025     A.U. after   16 cycles
 SCF Done:  E(RB3LYP) =  -410.330659251     A.U. after   14 cycles
 SCF Done:  E(RB3LYP) =  -410.331008387     A.U. after   15 cycles
 SCF Done:  E(RB3LYP) =  -410.330830517     A.U. after   16 cycles
 SCF Done:  E(RB3LYP) =  -410.331139026     A.U. after   13 cycles
 SCF Done:  E(RB3LYP) =  -410.331151458     A.U. after   14 cycles
 SCF Done:  E(RB3LYP) =  -410.331158387     A.U. after   13 cycles
 SCF Done:  E(RB3LYP) =  -410.331162467     A.U. after   11 cycles
 SCF Done:  E(RB3LYP) =  -410.331163680     A.U. after   10 cycles
 Optimization completed.
    -- Stationary point found.
 Normal termination of Gaussian 16 at Sat Jun 18 13:21:15 2022.

 ------------------------------------------------------------------
 #N Geom=AllCheck Guess=TCheck SCRF=Check GenChk RB3LYP/ChkBas Freq
 ------------------------------------------------------------------

 Structure from the checkpoint file:  "/wrk/irikura/Gau-24620.chk"
 -------------------------------
 nitrosyl nitrate, B3LYP/pcseg-2
 -------------------------------
 Charge =  0 Multiplicity = 1

                         Standard orientation:
 ---------------------------------------------------------------------
 Center     Atomic      Atomic             Coordinates (Angstroms)
 Number     Number       Type             X           Y           Z
 ---------------------------------------------------------------------
      1          7           0        1.037078    0.026409   -0.016961
      2          8           0       -0.213889   -0.634776   -0.144542
      3          7           0       -1.451858    0.372466    0.154903
      4          8           0       -2.408259   -0.201833   -0.018721
      5          8           0        1.950421   -0.739409    0.100613
      6          8           0        1.034659    1.227002   -0.058050
 ---------------------------------------------------------------------

 SCF Done:  E(RB3LYP) =  -410.331163680     A.U. after    1 cycles

 The electronic state is 1-A.
 Alpha  occ. eigenvalues --  -19.31156 -19.23359 -19.20021 -19.19927 -14.62908
 Alpha  occ. eigenvalues --  -14.57249  -1.33525  -1.30279  -1.12290  -1.06662
 Alpha  occ. eigenvalues --   -0.76375  -0.68094  -0.61359  -0.60296  -0.58435
 Alpha  occ. eigenvalues --   -0.57244  -0.55498  -0.53745  -0.38708  -0.37616
 Alpha  occ. eigenvalues --   -0.36052  -0.35284  -0.32897
 Alpha virt. eigenvalues --   -0.15827  -0.08619  -0.05267   0.03169   0.12491
 Alpha virt. eigenvalues --    0.13264   0.18816   0.20111   0.20900   0.24659
 Alpha virt. eigenvalues --    0.26578   0.27728   0.30691   0.32082   0.33955

 Mulliken charges:
               1
     1  N    0.585958
     2  O   -0.254076
     3  N    0.276799
     4  O   -0.023808
     5  O   -0.279303
     6  O   -0.305571
 Sum of Mulliken charges =   0.00000

 Dipole moment (field-independent basis, Debye):
    X=             -2.7709    Y=              0.2522    Z=              0.1319  Tot=              2.7855
 Quadrupole moment (field-independent basis, Debye-Ang):
   XX=            -32.4862   YY=            -35.4723   ZZ=            -29.9631
   XY=             -0.3516   XZ=             -0.5296   YZ=             -0.2409

  Exact polarizability:  60.055  -3.805  35.377   0.282   0.206  19.216
 Approx polarizability:  99.959 -15.291  70.258   0.795   0.540  28.112

                      1                      2                      3
                      A                      A                      A
 Frequencies --     40.3744               125.0898               210.9945
 Red. masses --     15.2449                15.4209                15.4945
 Frc consts  --      0.0146                 0.1422                 0.4064
 IR Inten    --      0.9326                 1.2760                 0.3906

                      4                      5                      6
                      A                      A                      A
 Frequencies --    303.7457               489.8349               641.3905
 Red. masses --     15.1120                15.3089                15.8004
 Frc consts  --      0.8215                 2.1642                 3.8297
 IR Inten    --    274.1599               209.2870               143.3048

                      7                      8                      9
                      A                      A                      A
 Frequencies --    771.7337               806.4042               940.1047
 Red. masses --     14.6624                15.0458                15.1978
 Frc consts  --      5.1451                 5.7646                 7.9137
 IR Inten    --     34.8866               193.0238                39.8264

                     10                     11                     12
                      A                      A                      A
 Frequencies --   1324.4838              1700.5822              1932.5746
 Red. masses --     15.2716                14.5768                14.8724
 Frc consts  --     15.7844                24.8375                32.7269
 IR Inten    --    306.7640               422.2171               391.8181

 - Thermochemistry -
 -------------------
 Temperature   298.150 Kelvin.  Pressure   1.00000 Atm.
 Atom     1 has atomic number  7 and mass  14.00307

 Molecular mass:    91.98581 amu.
 Principal axes and moments of inertia in atomic units:
                           1         2         3
     Eigenvalues --   152.73562 774.70948 921.04844
           X            1.00000   0.00002   0.00001
           Y           -0.00002   1.00000  -0.00001
           Z           -0.00001   0.00001   1.00000
 This molecule is an asymmetric top.
 Rotational symmetry number  1.
 Rotational temperatures (Kelvin)      0.56708     0.11180     0.09404
 Rotational constants (GHZ):          11.81611     2.32957     1.95944
 Zero-point vibrational energy      55550.5 (Joules/Mol)
                                   13.27688 (Kcal/Mol)
 Warning -- explicit consideration of   5 degrees of freedom as
           vibrations may cause significant error
 Vibrational temperatures:     58.09   179.98   303.57   437.02   704.76
          (Kelvin)            922.82  1110.35  1160.24  1352.60  1905.64
                             2446.76  2780.54

 Zero-point correction=                           0.021158 (Hartree/Particle)
 Thermal correction to Energy=                    0.027086
 Thermal correction to Enthalpy=                  0.028030
 Thermal correction to Gibbs Free Energy=        -0.009507
 Sum of electronic and zero-point Energies=           -410.310006
 Sum of electronic and thermal Energies=              -410.304078
 Sum of electronic and thermal Enthalpies=            -410.303134
 Sum of electronic and thermal Free Energies=         -410.340671

                     E (Thermal)             CV                S
                      KCal/Mol        Cal/Mol-Kelvin    Cal/Mol-Kelvin
 Total                   16.997             17.554             79.004
 Electronic               0.000              0.000              0.000
 Translational            0.889              2.981             39.469
 Rotational               0.889              2.981             26.191
 Vibrational             15.219             11.592             13.344
 Vibration     1          0.594              1.981              5.241
 Vibration     2          0.610              1.928              3.020
 Vibration     3          0.643              1.824              2.035
 Vibration     4          0.695              1.667              1.396
 Vibration     5          0.846              1.273              0.684

                           ! Non-Optimized Parameters !
 Normal termination of Gaussian 16 at Sat Jun 18 13:22:08 2022.
