 Gaussian 16, Revision B.01,

 ---------------------------------------
 # b3lyp/gen opt freq CPHF(Grid=OneStep)
 ---------------------------------------

 -------------------------------
 nitrosyl nitrate, B3LYP/pcseg-2
 -------------------------------
 Symbolic Z-matrix:
 Charge =  0 Multiplicity = 1

 SCF Done:  E(RB3LYP) =  -410.331163680     A.U. after   15 cycles
 Optimization completed.
    -- Stationary point found.
 Normal termination of Gaussian 16 at Sun Oct  1 01:08:46 2023.

 ------------------------------------------------------------------
 #N Geom=AllCheck Guess=TCheck SCRF=Check GenChk RB3LYP/ChkBas Freq
 ------------------------------------------------------------------

 Structure from the checkpoint file:  "onono2.chk"
 -------------------------------
 nitrosyl nitrate, B3LYP/pcseg-2
 -------------------------------
 Charge =  0 Multiplicity = 1

 SCF Done:  E(RB3LYP) =  -410.331163680     A.U. after    2 cycles

  Exact polarizability:  60.055  -3.805  35.376   0.282   0.206  19.216
 Approx polarizability:  99.959 -15.291  70.258   0.795   0.540  28.112

                      1                      2                      3
                      A                      A                      A
 Frequencies --     40.3627               125.0886               210.9941
 Red. masses --     15.2449                15.4209                15.4945
 Frc consts  --      0.0146                 0.1422                 0.4064
 IR Inten    --      0.9328                 1.2760                 0.3908

                      4                      5                      6
                      A                      A                      A
 Frequencies --    303.7431               489.8355               641.3913
 Red. masses --     15.1120                15.3089                15.8004
 Frc consts  --      0.8215                 2.1642                 3.8297
 IR Inten    --    274.1738               209.2780               143.3091

                      7                      8                      9
                      A                      A                      A
 Frequencies --    771.7317               806.4021               940.1106
 Red. masses --     14.6624                15.0458                15.1978
 Frc consts  --      5.1450                 5.7646                 7.9139
 IR Inten    --     34.8828               193.0151                39.8285

                     10                     11                     12
                      A                      A                      A
 Frequencies --   1324.4869              1700.5759              1932.5703
 Red. masses --     15.2716                14.5768                14.8724
 Frc consts  --     15.7844                24.8374                32.7267
 IR Inten    --    306.7729               422.2077               391.8240

 - Thermochemistry -
 -------------------
 Temperature   298.150 Kelvin.  Pressure   1.00000 Atm.
 Atom     1 has atomic number  7 and mass  14.00307

 Molecular mass:    91.98581 amu.
 Principal axes and moments of inertia in atomic units:
                           1         2         3
     Eigenvalues --   152.73567 774.70948 921.04848
           X            1.00000   0.00002   0.00001
           Y           -0.00002   1.00000  -0.00001
           Z           -0.00001   0.00001   1.00000
 This molecule is an asymmetric top.
 Rotational symmetry number  1.
 Rotational temperatures (Kelvin)      0.56708     0.11180     0.09404
 Rotational constants (GHZ):          11.81611     2.32957     1.95944
 Zero-point vibrational energy      55550.3 (Joules/Mol)
                                   13.27685 (Kcal/Mol)
 Warning -- explicit consideration of   5 degrees of freedom as
           vibrations may cause significant error
 Vibrational temperatures:     58.07   179.97   303.57   437.02   704.76
          (Kelvin)            922.82  1110.35  1160.23  1352.61  1905.64
                             2446.75  2780.54

 Zero-point correction=                           0.021158 (Hartree/Particle)
 Thermal correction to Energy=                    0.027086
 Thermal correction to Enthalpy=                  0.028030
 Thermal correction to Gibbs Free Energy=        -0.009508
 Sum of electronic and zero-point Energies=           -410.310006
 Sum of electronic and thermal Energies=              -410.304078
 Sum of electronic and thermal Enthalpies=            -410.303134
 Sum of electronic and thermal Free Energies=         -410.340671

                     E (Thermal)             CV                S
                      KCal/Mol        Cal/Mol-Kelvin    Cal/Mol-Kelvin
 Total                   16.997             17.554             79.005
 Electronic               0.000              0.000              0.000
 Translational            0.889              2.981             39.469
 Rotational               0.889              2.981             26.191
 Vibrational             15.219             11.592             13.345
 Vibration     1          0.594              1.981              5.241
 Vibration     2          0.610              1.928              3.020
 Vibration     3          0.643              1.824              2.035
 Vibration     4          0.695              1.667              1.396
 Vibration     5          0.846              1.273              0.684

                           ! Non-Optimized Parameters !
 Normal termination of Gaussian 16 at Sun Oct  1 01:11:29 2023.
 Gaussian 16:  ES64L-G16RevB.01 20-Dec-2017

 ---------------------------------
 # rohf/gen geom=check guess=check
 ---------------------------------

 ----------------------------------
 nitrosyl nitrate, ROHF/cc-pVTZ-F12
 ----------------------------------
 Structure from the checkpoint file:  "onono2.chk"
 Charge =  0 Multiplicity = 1

                         Standard orientation:
 ---------------------------------------------------------------------
 Center     Atomic      Atomic             Coordinates (Angstroms)
 Number     Number       Type             X           Y           Z
 ---------------------------------------------------------------------
      1          7           0        1.037078    0.026409   -0.016961
      2          8           0       -0.213889   -0.634776   -0.144542
      3          7           0       -1.451858    0.372466    0.154903
      4          8           0       -2.408259   -0.201833   -0.018721
      5          8           0        1.950421   -0.739409    0.100613
      6          8           0        1.034659    1.227002   -0.058050
 ---------------------------------------------------------------------

 SCF Done:  E(ROHF) =  -408.231846021     A.U. after   16 cycles

 The electronic state is 1-A.
 Alpha  occ. eigenvalues --  -20.77120 -20.68018 -20.63290 -20.63256 -15.92697
 Alpha  occ. eigenvalues --  -15.88057  -1.71757  -1.67272  -1.45637  -1.40268
 Alpha  occ. eigenvalues --   -1.02797  -0.92317  -0.83295  -0.80534  -0.78507
 Alpha  occ. eigenvalues --   -0.76582  -0.74951  -0.73913  -0.56801  -0.54531
 Alpha  occ. eigenvalues --   -0.52666  -0.49471  -0.48769
 Alpha virt. eigenvalues --    0.02278   0.05632   0.07825   0.08198   0.08273
 Alpha virt. eigenvalues --    0.09560   0.11432   0.11597   0.13092   0.14015
 Alpha virt. eigenvalues --    0.16097   0.16405   0.18079   0.19285   0.20117

 Mulliken charges and spin densities:
               1          2
     1  N    0.608430   0.000000
     2  O   -0.246047   0.000000
     3  N    0.430021   0.000000
     4  O   -0.104639   0.000000
     5  O   -0.331177   0.000000
     6  O   -0.356588   0.000000
 Sum of Mulliken charges =  -0.00000   0.00000

 Dipole moment (field-independent basis, Debye):
    X=             -3.4204    Y=              0.3859    Z=              0.2120  Tot=              3.4486
 Quadrupole moment (field-independent basis, Debye-Ang):
   XX=            -32.4887   YY=            -35.5905   ZZ=            -29.9235
   XY=             -0.5684   XZ=             -0.6301   YZ=             -0.2021

 Normal termination of Gaussian 16 at Sun Oct  1 01:14:05 2023.
