 Gaussian 16, Revision B.01,
 Gaussian 16:  ES64L-G16RevB.01 20-Dec-2017

 --------------------
 # b3lyp/gen opt freq
 --------------------

 -------------------------------
 nitrosyl nitrite, B3LYP/pcseg-2
 -------------------------------
 Symbolic Z-matrix:
 Charge =  0 Multiplicity = 1

 SCF Done:  E(RB3LYP) =  -335.117541092     A.U. after   13 cycles
 SCF Done:  E(RB3LYP) =  -335.117583248     A.U. after    8 cycles
 SCF Done:  E(RB3LYP) =  -335.117597226     A.U. after    8 cycles
 SCF Done:  E(RB3LYP) =  -335.117602281     A.U. after    8 cycles
 SCF Done:  E(RB3LYP) =  -335.117603425     A.U. after    8 cycles
 Optimization completed.
    -- Stationary point found.
 Normal termination of Gaussian 16 at Sat Jun 18 12:43:58 2022.

 ------------------------------------------------------------------
 #N Geom=AllCheck Guess=TCheck SCRF=Check GenChk RB3LYP/ChkBas Freq
 ------------------------------------------------------------------

 Structure from the checkpoint file:  "/wrk/irikura/Gau-17665.chk"
 -------------------------------
 nitrosyl nitrite, B3LYP/pcseg-2
 -------------------------------
 Charge =  0 Multiplicity = 1

                         Standard orientation:
 ---------------------------------------------------------------------
 Center     Atomic      Atomic             Coordinates (Angstroms)
 Number     Number       Type             X           Y           Z
 ---------------------------------------------------------------------
      1          8           0        0.000000    0.000000    0.457660
      2          7           0       -0.000000    1.178252   -0.450929
      3          7           0       -0.000000   -1.178252   -0.450929
      4          8           0       -0.000000    2.152892    0.165732
      5          8           0       -0.000000   -2.152892    0.165732
 ---------------------------------------------------------------------

 SCF Done:  E(RB3LYP) =  -335.117603425     A.U. after    1 cycles

 The electronic state is 1-A1.
 Alpha  occ. eigenvalues --  -19.25217 -19.25217 -19.22476 -14.53366 -14.53366
 Alpha  occ. eigenvalues --   -1.28332  -1.26802  -1.06404  -0.74439  -0.67648
 Alpha  occ. eigenvalues --   -0.60058  -0.55935  -0.55838  -0.53048  -0.50063
 Alpha  occ. eigenvalues --   -0.49462  -0.37807  -0.32322  -0.30907
 Alpha virt. eigenvalues --   -0.13090  -0.11100   0.03398   0.03408   0.14148
 Alpha virt. eigenvalues --    0.15805   0.20263   0.21135   0.21980   0.25448
 Alpha virt. eigenvalues --    0.27433   0.31570   0.33370   0.34157   0.35220

 Mulliken charges:
               1
     1  O   -0.172800
     2  N    0.202524
     3  N    0.202524
     4  O   -0.116124
     5  O   -0.116124
 Sum of Mulliken charges =  -0.00000

 Dipole moment (field-independent basis, Debye):
    X=              0.0000    Y=              0.0000    Z=             -0.5450  Tot=              0.5450
 Quadrupole moment (field-independent basis, Debye-Ang):
   XX=            -24.7588   YY=            -28.2085   ZZ=            -28.3762
   XY=             -0.0000   XZ=              0.0000   YZ=              0.0000

  Exact polarizability:  16.781   0.000  57.310   0.000   0.000  22.571
 Approx polarizability:  24.415   0.000  95.910   0.000  -0.000  35.820

                      1                      2                      3
                     B1                     A2                     A1
 Frequencies --    134.3204               232.8127               245.7401
 Red. masses --     15.8644                14.3750                15.5740
 Frc consts  --      0.1686                 0.4591                 0.5541
 IR Inten    --      0.0007                 0.0000                 0.1778

                      4                      5                      6
                     B2                     A1                     B2
 Frequencies --    363.2942               411.3714               735.1961
 Red. masses --     14.8688                15.0843                15.2172
 Frc consts  --      1.1562                 1.5040                 4.8461
 IR Inten    --   1075.9552                 3.6600                 0.3029

                      7                      8                      9
                     A1                     B2                     A1
 Frequencies --   1011.8176              1784.7816              1837.7259
 Red. masses --     14.9935                14.9061                14.8393
 Frc consts  --      9.0439                27.9759                29.5273
 IR Inten    --     42.5196               586.9803                 0.1250

 - Thermochemistry -
 -------------------
 Temperature   298.150 Kelvin.  Pressure   1.00000 Atm.
 Atom     1 has atomic number  8 and mass  15.99491

 Molecular mass:    75.99089 amu.
 Principal axes and moments of inertia in atomic units:
                           1         2         3
     Eigenvalues --    35.43757 668.32993 703.76750
           X            0.00000   0.00000   1.00000
           Y            1.00000   0.00000  -0.00000
           Z            0.00000   1.00000   0.00000
 This molecule is an asymmetric top.
 Rotational symmetry number  2.
 Rotational temperatures (Kelvin)      2.44413     0.12960     0.12307
 Rotational constants (GHZ):          50.92734     2.70037     2.56440
 Zero-point vibrational energy      40416.2 (Joules/Mol)
                                    9.65970 (Kcal/Mol)
 Warning -- explicit consideration of   5 degrees of freedom as
           vibrations may cause significant error
 Vibrational temperatures:    193.26   334.97   353.57   522.70   591.87
          (Kelvin)           1057.78  1455.78  2567.90  2644.08

 Zero-point correction=                           0.015394 (Hartree/Particle)
 Thermal correction to Energy=                    0.020683
 Thermal correction to Enthalpy=                  0.021627
 Thermal correction to Gibbs Free Energy=        -0.011984
 Sum of electronic and zero-point Energies=           -335.102210
 Sum of electronic and thermal Energies=              -335.096920
 Sum of electronic and thermal Enthalpies=            -335.095976
 Sum of electronic and thermal Free Energies=         -335.129587

                     E (Thermal)             CV                S
                      KCal/Mol        Cal/Mol-Kelvin    Cal/Mol-Kelvin
 Total                   12.979             15.611             70.741
 Electronic               0.000              0.000              0.000
 Translational            0.889              2.981             38.900
 Rotational               0.889              2.981             22.948
 Vibrational             11.201              9.650              8.894
 Vibration     1          0.613              1.919              2.883
 Vibration     2          0.654              1.791              1.857
 Vibration     3          0.660              1.770              1.761
 Vibration     4          0.737              1.548              1.108
 Vibration     5          0.775              1.446              0.922

 Optimization completed.
    -- Stationary point found.
 Normal termination of Gaussian 16 at Sat Jun 18 12:44:15 2022.
