 Gaussian 16, Revision B.01,
 Gaussian 16:  ES64L-G16RevB.01 20-Dec-2017

 --------------------
 # b3lyp/gen opt freq
 --------------------

 -----------------------
 oxiranyl, B3LYP/pcseg-2
 -----------------------
 Symbolic Z-matrix:
 Charge =  0 Multiplicity = 2

 SCF Done:  E(UB3LYP) =  -153.180504357     A.U. after   14 cycles
 SCF Done:  E(UB3LYP) =  -153.180570023     A.U. after   10 cycles
 SCF Done:  E(UB3LYP) =  -153.180576494     A.U. after    9 cycles
 SCF Done:  E(UB3LYP) =  -153.180578270     A.U. after    8 cycles
 Optimization completed.
    -- Stationary point found.
 Normal termination of Gaussian 16 at Thu Jun 16 21:22:40 2022.

 ------------------------------------------------------------------
 #N Geom=AllCheck Guess=TCheck SCRF=Check GenChk UB3LYP/ChkBas Freq
 ------------------------------------------------------------------

 Structure from the checkpoint file:  "/wrk/irikura/Gau-18482.chk"
 -----------------------
 oxiranyl, B3LYP/pcseg-2
 -----------------------
 Charge =  0 Multiplicity = 2

                         Standard orientation:
 ---------------------------------------------------------------------
 Center     Atomic      Atomic             Coordinates (Angstroms)
 Number     Number       Type             X           Y           Z
 ---------------------------------------------------------------------
      1          6           0       -0.793695   -0.191767    0.017569
      2          6           0        0.590786   -0.567130   -0.157315
      3          8           0        0.331750    0.757261    0.030866
      4          1           0        1.293713   -1.110926    0.463689
      5          1           0       -1.438597   -0.108216   -0.848302
      6          1           0       -1.291659   -0.285568    0.976157
 ---------------------------------------------------------------------

 SCF Done:  E(UB3LYP) =  -153.180578270     A.U. after    1 cycles

 The electronic state is 2-A.
 Alpha  occ. eigenvalues --  -19.17430 -10.24243 -10.24202  -1.11131  -0.69422
 Alpha  occ. eigenvalues --   -0.63199  -0.52459  -0.49634  -0.42328  -0.35676
 Alpha  occ. eigenvalues --   -0.34054  -0.21702
 Alpha virt. eigenvalues --    0.02320   0.03788   0.04448   0.06559   0.08633
 Alpha virt. eigenvalues --    0.14352   0.16665   0.21238   0.22622   0.24818
 Alpha virt. eigenvalues --    0.28047   0.29718   0.31452   0.32581   0.35171

  Beta  occ. eigenvalues --  -19.16867 -10.24236 -10.22829  -1.10075  -0.68666
  Beta  occ. eigenvalues --   -0.61069  -0.51356  -0.48107  -0.41615  -0.34055
  Beta  occ. eigenvalues --   -0.32013
  Beta virt. eigenvalues --   -0.07038   0.02407   0.04171   0.04705   0.06667
  Beta virt. eigenvalues --    0.09377   0.14536   0.18603   0.21451   0.23211
  Beta virt. eigenvalues --    0.25983   0.28613   0.30784   0.31893   0.32651

 Mulliken charges and spin densities:
               1          2
     1  C    0.096850  -0.016593
     2  C    0.092947   0.837243
     3  O   -0.365082   0.147798
     4  H    0.059759   0.024513
     5  H    0.060742   0.003167
     6  H    0.054784   0.003872
 Sum of Mulliken charges =  -0.00000   1.00000

 Dipole moment (field-independent basis, Debye):
    X=             -1.0277    Y=             -1.2852    Z=              0.6271  Tot=              1.7610
 Quadrupole moment (field-independent basis, Debye-Ang):
   XX=            -16.1484   YY=            -19.5954   ZZ=            -17.9747
   XY=             -0.9001   XZ=              0.8104   YZ=             -0.9406

  Exact polarizability:  31.000  -2.079  24.215  -0.160  -0.127  22.642
 Approx polarizability:  41.230  -0.814  36.728  -0.197   0.558  28.840

                      1                      2                      3
                      A                      A                      A
 Frequencies --    775.7794               797.1839               940.6721
 Red. masses --      6.8595                 1.0599                 2.6807
 Frc consts  --      2.4323                 0.3968                 1.3976
 IR Inten    --     27.4505                16.4358                75.3698

                      4                      5                      6
                      A                      A                      A
 Frequencies --   1042.9635              1073.4304              1130.1804
 Red. masses --      1.1791                 1.3608                 1.2984
 Frc consts  --      0.7557                 0.9238                 0.9771
 IR Inten    --      0.5432                 3.9243                 1.2364

                      7                      8                      9
                      A                      A                      A
 Frequencies --   1184.7942              1352.0321              1523.1311
 Red. masses --      1.6410                 3.4994                 1.2535
 Frc consts  --      1.3572                 3.7689                 1.7134
 IR Inten    --      0.8292                17.8319                 4.3803

                     10                     11                     12
                      A                      A                      A
 Frequencies --   3098.5578              3139.3506              3189.6900
 Red. masses --      1.0481                 1.0951                 1.1197
 Frc consts  --      5.9291                 6.3589                 6.7118
 IR Inten    --     23.9141                10.5717                12.2697

 - Thermochemistry -
 -------------------
 Temperature   298.150 Kelvin.  Pressure   1.00000 Atm.
 Atom     1 has atomic number  6 and mass  12.00000

 Molecular mass:    43.01839 amu.
 Principal axes and moments of inertia in atomic units:
                           1         2         3
     Eigenvalues --    59.96392  75.85646 120.47189
           X            0.98154  -0.18802   0.03488
           Y            0.18983   0.98004  -0.05907
           Z           -0.02308   0.06460   0.99764
 This molecule is an asymmetric top.
 Rotational symmetry number  1.
 Rotational temperatures (Kelvin)      1.44443     1.14181     0.71896
 Rotational constants (GHZ):          30.09712    23.79153    14.98060
 Zero-point vibrational energy     115127.2 (Joules/Mol)
                                   27.51606 (Kcal/Mol)
 Vibrational temperatures:   1116.17  1146.97  1353.42  1500.59  1544.43
          (Kelvin)           1626.08  1704.65  1945.27  2191.45  4458.13
                             4516.83  4589.25

 Zero-point correction=                           0.043850 (Hartree/Particle)
 Thermal correction to Energy=                    0.047006
 Thermal correction to Enthalpy=                  0.047950
 Thermal correction to Gibbs Free Energy=         0.019276
 Sum of electronic and zero-point Energies=           -153.136729
 Sum of electronic and thermal Energies=              -153.133573
 Sum of electronic and thermal Enthalpies=            -153.132628
 Sum of electronic and thermal Free Energies=         -153.161302

                     E (Thermal)             CV                S
                      KCal/Mol        Cal/Mol-Kelvin    Cal/Mol-Kelvin
 Total                   29.497              9.055             60.350
 Electronic               0.000              0.000              1.377
 Translational            0.889              2.981             37.204
 Rotational               0.889              2.981             20.932
 Vibrational             27.719              3.094              0.836

 Optimization completed.
    -- Stationary point found.
 Normal termination of Gaussian 16 at Thu Jun 16 21:23:21 2022.
