 Gaussian 16, Revision B.01,
 Gaussian 16:  ES64L-G16RevB.01 20-Dec-2017

 -----------------------
 # ccsd/cc-pVTZ opt freq
 -----------------------

 ----------------------------------------------
 acetylene oxide, B3LYP/pcseg-2 breaks symmetry
 ----------------------------------------------
 Symbolic Z-matrix:
 Charge =  0 Multiplicity = 1

 SCF Done:  E(RHF) =  -151.642957874     A.U. after   11 cycles
 E2 =    -0.5522188297D+00 EUMP2 =    -0.15219517670356D+03
 SCF Done:  E(RHF) =  -151.643011147     A.U. after    9 cycles
 E2 =    -0.5522841739D+00 EUMP2 =    -0.15219529532093D+03
 SCF Done:  E(RHF) =  -151.643175655     A.U. after    8 cycles
 E2 =    -0.5520766267D+00 EUMP2 =    -0.15219525228152D+03
 Optimization completed.
    -- Stationary point found.
 Normal termination of Gaussian 16 at Sat Jun 18 13:30:41 2022.

 ----------------------------------------------------------------------
 #N Geom=AllCheck Guess=TCheck SCRF=Check GenChk RCCSD(FC)/CC-pVTZ Freq
 ----------------------------------------------------------------------

 Structure from the checkpoint file:  "/wrk/irikura/Gau-26271.chk"
 ----------------------------------------------
 acetylene oxide, B3LYP/pcseg-2 breaks symmetry
 ----------------------------------------------
 Charge =  0 Multiplicity = 1

                         Standard orientation:
 ---------------------------------------------------------------------
 Center     Atomic      Atomic             Coordinates (Angstroms)
 Number     Number       Type             X           Y           Z
 ---------------------------------------------------------------------
      1          8           0       -0.000000    0.000000    0.889010
      2          6           0        0.000000    0.633583   -0.460808
      3          6           0       -0.000000   -0.633583   -0.460808
      4          1           0        0.000000    1.648936   -0.791192
      5          1           0       -0.000000   -1.648936   -0.791192
 ---------------------------------------------------------------------

 SCF Done:  E(RHF) =  -151.643175655     A.U. after    1 cycles
 E2 =    -0.5520766246D+00 EUMP2 =    -0.15219525227937D+03
 SCF Done:  E(RHF) =  -151.643175634     A.U. after    5 cycles
 E2 =    -0.5520766535D+00 EUMP2 =    -0.15219525228707D+03
 SCF Done:  E(RHF) =  -151.643175562     A.U. after    8 cycles
 E2 =    -0.5520766706D+00 EUMP2 =    -0.15219525223218D+03
 SCF Done:  E(RHF) =  -151.643125689     A.U. after    8 cycles
 E2 =    -0.5521415099D+00 EUMP2 =    -0.15219526719923D+03
 SCF Done:  E(RHF) =  -151.643224299     A.U. after    8 cycles
 E2 =    -0.5520116889D+00 EUMP2 =    -0.15219523598775D+03
 SCF Done:  E(RHF) =  -151.643175498     A.U. after    7 cycles
 E2 =    -0.5520767188D+00 EUMP2 =    -0.15219525221690D+03
 SCF Done:  E(RHF) =  -151.643086794     A.U. after   10 cycles
 E2 =    -0.5521804240D+00 EUMP2 =    -0.15219526721820D+03
 SCF Done:  E(RHF) =  -151.643260044     A.U. after   10 cycles
 E2 =    -0.5519730199D+00 EUMP2 =    -0.15219523306360D+03
 SCF Done:  E(RHF) =  -151.643194467     A.U. after    9 cycles
 E2 =    -0.5520501555D+00 EUMP2 =    -0.15219524462291D+03
 SCF Done:  E(RHF) =  -151.643156098     A.U. after    9 cycles
 E2 =    -0.5521032190D+00 EUMP2 =    -0.15219525931668D+03
 SCF Done:  E(RHF) =  -151.643175623     A.U. after    6 cycles
 E2 =    -0.5520766413D+00 EUMP2 =    -0.15219525226415D+03
 SCF Done:  E(RHF) =  -151.643164146     A.U. after    7 cycles
 E2 =    -0.5520876958D+00 EUMP2 =    -0.15219525184156D+03
 SCF Done:  E(RHF) =  -151.643185819     A.U. after    7 cycles
 E2 =    -0.5520655902D+00 EUMP2 =    -0.15219525140876D+03
 SCF Done:  E(RHF) =  -151.643180989     A.U. after    7 cycles
 E2 =    -0.5520707266D+00 EUMP2 =    -0.15219525171534D+03
 SCF Done:  E(RHF) =  -151.643170053     A.U. after    7 cycles
 E2 =    -0.5520825532D+00 EUMP2 =    -0.15219525260659D+03

 Alpha  occ. eigenvalues --  -20.56212 -11.30871 -11.30619  -1.37784  -0.96188
 Alpha  occ. eigenvalues --   -0.81890  -0.72024  -0.58199  -0.51807  -0.51391
 Alpha  occ. eigenvalues --   -0.33749
 Alpha virt. eigenvalues --    0.13335   0.14755   0.15785   0.22097   0.26067
 Alpha virt. eigenvalues --    0.32420   0.40537   0.40957   0.47139   0.53189
 Alpha virt. eigenvalues --    0.53833   0.57089   0.57445   0.62831   0.72040

 Mulliken charges:
               1
     1  O   -0.322050
     2  C   -0.022084
     3  C   -0.021938
     4  H    0.183017
     5  H    0.183055
 Sum of Mulliken charges =  -0.00000

 Dipole moment (field-independent basis, Debye):
    X=             -0.0000    Y=             -0.0002    Z=             -2.4167  Tot=              2.4167
 Quadrupole moment (field-independent basis, Debye-Ang):
   XX=            -18.5404   YY=            -11.7620   ZZ=            -18.6902
   XY=             -0.0000   XZ=              0.0000   YZ=             -0.0018

                      1                      2                      3
                     B2                     B1                     A2
 Frequencies --    285.9411               536.0966               626.7687
 Red. masses --      9.3308                 1.1337                 1.5090
 Frc consts  --      0.4495                 0.1920                 0.3493
 IR Inten    --      2.0416                80.6905                 0.0000

                      4                      5                      6
                     A1                     B2                     A1
 Frequencies --    904.9710               988.8889              1103.7167
 Red. masses --      1.6814                 1.2443                 2.3347
 Frc consts  --      0.8113                 0.7169                 1.6757
 IR Inten    --     51.6694                 6.2369                 7.7334

                      7                      8                      9
                     A1                     B2                     A1
 Frequencies --   1811.0709              3359.2705              3433.3398
 Red. masses --      4.6094                 1.0818                 1.1701
 Frc consts  --      8.9077                 7.1929                 8.1265
 IR Inten    --      1.9403                46.6527                 2.7499

 - Thermochemistry -
 -------------------
 Temperature   298.150 Kelvin.  Pressure   1.00000 Atm.
 Atom     1 has atomic number  8 and mass  15.99491

 Molecular mass:    42.01056 amu.
 Principal axes and moments of inertia in atomic units:
                           1         2         3
     Eigenvalues --    53.97586  67.63993 121.61579
           X            0.00000   0.00000   1.00000
           Y            0.00000   1.00000   0.00000
           Z            1.00000   0.00000   0.00000
 This molecule is an asymmetric top.
 Rotational symmetry number  2.
 Rotational temperatures (Kelvin)      1.60468     1.28051     0.71219
 Rotational constants (GHZ):          33.43608    26.68160    14.83969
 Zero-point vibrational energy      78056.7 (Joules/Mol)
                                   18.65600 (Kcal/Mol)
 Warning -- explicit consideration of   2 degrees of freedom as
           vibrations may cause significant error
 Vibrational temperatures:    411.41   771.32   901.78  1302.05  1422.79
          (Kelvin)           1588.00  2605.73  4833.24  4939.81

 Zero-point correction=                           0.029730 (Hartree/Particle)
 Thermal correction to Energy=                    0.033463
 Thermal correction to Enthalpy=                  0.034407
 Thermal correction to Gibbs Free Energy=         0.006253
 Sum of electronic and zero-point Energies=           -152.174626
 Sum of electronic and thermal Energies=              -152.170893
 Sum of electronic and thermal Enthalpies=            -152.169949
 Sum of electronic and thermal Free Energies=         -152.198103

                     E (Thermal)             CV                S
                      KCal/Mol        Cal/Mol-Kelvin    Cal/Mol-Kelvin
 Total                   20.998             10.991             59.255
 Electronic               0.000              0.000              0.000
 Translational            0.889              2.981             37.133
 Rotational               0.889              2.981             19.346
 Vibrational             19.221              5.030              2.777
 Vibration     1          0.684              1.700              1.498
 Vibration     2          0.891              1.170              0.574

 Optimization completed.
    -- Stationary point found.
 Normal termination of Gaussian 16 at Sat Jun 18 14:25:20 2022.
