 Gaussian 16, Revision B.01,

 ---------------------------------------
 # b3lyp/gen opt freq CPHF(Grid=OneStep)
 ---------------------------------------

 -----------------------
 oxiranyl, B3LYP/pcseg-2
 -----------------------
 Symbolic Z-matrix:
 Charge =  0 Multiplicity = 2

 SCF Done:  E(UB3LYP) =  -153.180578270     A.U. after   14 cycles
 Optimization completed.
    -- Stationary point found.
 Normal termination of Gaussian 16 at Wed Sep 27 17:53:08 2023.

 ------------------------------------------------------------------
 #N Geom=AllCheck Guess=TCheck SCRF=Check GenChk UB3LYP/ChkBas Freq
 ------------------------------------------------------------------

 Structure from the checkpoint file:  "oxiranyl.chk"
 -----------------------
 oxiranyl, B3LYP/pcseg-2
 -----------------------
 Charge =  0 Multiplicity = 2

 SCF Done:  E(UB3LYP) =  -153.180578270     A.U. after    1 cycles

  Exact polarizability:  31.000  -2.079  24.215  -0.160  -0.127  22.641
 Approx polarizability:  41.229  -0.814  36.728  -0.197   0.558  28.840

                      1                      2                      3
                      A                      A                      A
 Frequencies --    775.7775               797.1881               940.6743
 Red. masses --      6.8605                 1.0598                 2.6807
 Frc consts  --      2.4327                 0.3968                 1.3976
 IR Inten    --     27.4529                16.4339                75.3685

                      4                      5                      6
                      A                      A                      A
 Frequencies --   1042.9641              1073.4323              1130.1818
 Red. masses --      1.1791                 1.3608                 1.2984
 Frc consts  --      0.7557                 0.9238                 0.9771
 IR Inten    --      0.5432                 3.9243                 1.2364

                      7                      8                      9
                      A                      A                      A
 Frequencies --   1184.7976              1352.0339              1523.1311
 Red. masses --      1.6410                 3.4994                 1.2535
 Frc consts  --      1.3572                 3.7689                 1.7134
 IR Inten    --      0.8289                17.8324                 4.3806

                     10                     11                     12
                      A                      A                      A
 Frequencies --   3098.5537              3139.3462              3189.6837
 Red. masses --      1.0481                 1.0951                 1.1197
 Frc consts  --      5.9290                 6.3588                 6.7117
 IR Inten    --     23.9126                10.5716                12.2702

 - Thermochemistry -
 -------------------
 Temperature   298.150 Kelvin.  Pressure   1.00000 Atm.
 Atom     1 has atomic number  6 and mass  12.00000

 Molecular mass:    43.01839 amu.
 Principal axes and moments of inertia in atomic units:
                           1         2         3
     Eigenvalues --    59.96394  75.85642 120.47185
           X            0.98154  -0.18802   0.03488
           Y            0.18983   0.98004  -0.05907
           Z           -0.02308   0.06460   0.99764
 This molecule is an asymmetric top.
 Rotational symmetry number  1.
 Rotational temperatures (Kelvin)      1.44443     1.14181     0.71896
 Rotational constants (GHZ):          30.09711    23.79154    14.98060
 Zero-point vibrational energy     115127.2 (Joules/Mol)
                                   27.51606 (Kcal/Mol)
 Vibrational temperatures:   1116.17  1146.98  1353.42  1500.59  1544.43
          (Kelvin)           1626.08  1704.66  1945.28  2191.45  4458.13
                             4516.82  4589.24

 Zero-point correction=                           0.043850 (Hartree/Particle)
 Thermal correction to Energy=                    0.047006
 Thermal correction to Enthalpy=                  0.047950
 Thermal correction to Gibbs Free Energy=         0.019276
 Sum of electronic and zero-point Energies=           -153.136729
 Sum of electronic and thermal Energies=              -153.133573
 Sum of electronic and thermal Enthalpies=            -153.132628
 Sum of electronic and thermal Free Energies=         -153.161302

                     E (Thermal)             CV                S
                      KCal/Mol        Cal/Mol-Kelvin    Cal/Mol-Kelvin
 Total                   29.497              9.055             60.349
 Electronic               0.000              0.000              1.377
 Translational            0.889              2.981             37.204
 Rotational               0.889              2.981             20.932
 Vibrational             27.719              3.094              0.836

 Optimization completed.
    -- Stationary point found.
 Normal termination of Gaussian 16 at Wed Sep 27 17:55:34 2023.
 Gaussian 16:  ES64L-G16RevB.01 20-Dec-2017

 ---------------------------------
 # rohf/gen geom=check guess=check
 ---------------------------------

 --------------------------
 oxiranyl, ROHF/cc-pVTZ-F12
 --------------------------
 Structure from the checkpoint file:  "oxiranyl.chk"
 Charge =  0 Multiplicity = 2

                         Standard orientation:
 ---------------------------------------------------------------------
 Center     Atomic      Atomic             Coordinates (Angstroms)
 Number     Number       Type             X           Y           Z
 ---------------------------------------------------------------------
      1          6           0       -0.793695   -0.191767    0.017569
      2          6           0        0.590786   -0.567130   -0.157315
      3          8           0        0.331750    0.757261    0.030866
      4          1           0        1.293713   -1.110926    0.463689
      5          1           0       -1.438597   -0.108216   -0.848302
      6          1           0       -1.291659   -0.285568    0.976157
 ---------------------------------------------------------------------

 SCF Done:  E(ROHF) =  -152.293352142     A.U. after   17 cycles

 The electronic state is 2-A.
 Alpha  occ. eigenvalues --  -20.58749 -11.29777 -11.29087  -1.43063  -0.93266
 Alpha  occ. eigenvalues --   -0.82947  -0.69273  -0.64999  -0.56317  -0.48944
 Alpha  occ. eigenvalues --   -0.46688  -0.07849
 Alpha virt. eigenvalues --    0.04884   0.05717   0.06828   0.07271   0.09236
 Alpha virt. eigenvalues --    0.09834   0.10532   0.16709   0.17777   0.18683
 Alpha virt. eigenvalues --    0.22995   0.23586   0.24165   0.25184   0.26906

 Mulliken charges and spin densities:
               1          2
     1  C   -0.022946   0.001298
     2  C    0.084158   0.906025
     3  O   -0.452467   0.056563
     4  H    0.144404   0.027034
     5  H    0.128007   0.003357
     6  H    0.118845   0.005724
 Sum of Mulliken charges =  -0.00000   1.00000

 Dipole moment (field-independent basis, Debye):
    X=             -1.0520    Y=             -1.7216    Z=              0.4907  Tot=              2.0764
 Quadrupole moment (field-independent basis, Debye-Ang):
   XX=            -15.6849   YY=            -19.7258   ZZ=            -17.6543
   XY=             -1.1954   XZ=              0.6572   YZ=             -0.8406

 Normal termination of Gaussian 16 at Wed Sep 27 17:56:19 2023.
