 Gaussian 16, Revision B.01,
 Gaussian 16:  ES64L-G16RevB.01 20-Dec-2017

 --------------------
 # b3lyp/gen opt freq
 --------------------

 -----------------------------
 Ethylene oxide, B3LYP/pcseg-2
 -----------------------------
 Symbolic Z-matrix:
 Charge =  0 Multiplicity = 1

 SCF Done:  E(RB3LYP) =  -153.772851819     A.U. after   10 cycles
 SCF Done:  E(RB3LYP) =  -153.833535880     A.U. after   10 cycles
 SCF Done:  E(RB3LYP) =  -153.852613851     A.U. after   11 cycles
 SCF Done:  E(RB3LYP) =  -153.855170983     A.U. after   10 cycles
 SCF Done:  E(RB3LYP) =  -153.855286527     A.U. after    7 cycles
 SCF Done:  E(RB3LYP) =  -153.855320943     A.U. after    7 cycles
 SCF Done:  E(RB3LYP) =  -153.855321402     A.U. after    6 cycles
 Optimization completed.
    -- Stationary point found.
 Normal termination of Gaussian 16 at Thu Feb  3 12:17:17 2022.

 ------------------------------------------------------------------
 #N Geom=AllCheck Guess=TCheck SCRF=Check GenChk RB3LYP/ChkBas Freq
 ------------------------------------------------------------------

 Structure from the checkpoint file:  "/wrk/irikura/Gau-22952.chk"
 -----------------------------
 Ethylene oxide, B3LYP/pcseg-2
 -----------------------------
 Charge =  0 Multiplicity = 1

                         Standard orientation:
 ---------------------------------------------------------------------
 Center     Atomic      Atomic             Coordinates (Angstroms)
 Number     Number       Type             X           Y           Z
 ---------------------------------------------------------------------
      1          8           0       -0.000000    0.000000    0.853669
      2          6           0       -0.000000    0.731767   -0.372403
      3          6           0       -0.000000   -0.731767   -0.372403
      4          1           0       -0.917383    1.267532   -0.590129
      5          1           0        0.917383    1.267532   -0.590129
      6          1           0        0.917383   -1.267532   -0.590129
      7          1           0       -0.917383   -1.267532   -0.590129
 ---------------------------------------------------------------------

 SCF Done:  E(RB3LYP) =  -153.855321402     A.U. after    1 cycles

 The electronic state is 1-A1.
 Alpha  occ. eigenvalues --  -19.14045 -10.22901 -10.22866  -1.07934  -0.68254
 Alpha  occ. eigenvalues --   -0.63993  -0.51986  -0.49037  -0.40384  -0.39269
 Alpha  occ. eigenvalues --   -0.32464  -0.28211
 Alpha virt. eigenvalues --    0.01999   0.04277   0.05056   0.05578   0.07916
 Alpha virt. eigenvalues --    0.09944   0.14614   0.18186   0.22269   0.24890
 Alpha virt. eigenvalues --    0.25286   0.29356   0.29884   0.32614   0.32888

 Mulliken charges:
               1
     1  O   -0.430393
     2  C    0.123362
     3  C    0.123362
     4  H    0.045917
     5  H    0.045917
     6  H    0.045917
     7  H    0.045917
 Sum of Mulliken charges =  -0.00000

 Dipole moment (field-independent basis, Debye):
    X=             -0.0000    Y=             -0.0000    Z=             -1.9889  Tot=              1.9889
 Quadrupole moment (field-independent basis, Debye-Ang):
   XX=            -17.5239   YY=            -16.5896   ZZ=            -21.0004
   XY=              0.0000   XZ=             -0.0000   YZ=              0.0000

  Exact polarizability:  24.910   0.000  31.734   0.000  -0.000  24.000
 Approx polarizability:  32.290   0.000  41.896   0.000   0.000  35.814

                      1                      2                      3
                     B1                     B2                     A1
 Frequencies --    818.8631               846.4013               888.4306
 Red. masses --      1.0238                 9.8400                 3.9449
 Frc consts  --      0.4045                 4.1533                 1.8346
 IR Inten    --      0.1026                11.3570                72.3035

                      4                      5                      6
                     A2                     A1                     B2
 Frequencies --   1047.2016              1150.3527              1160.8925
 Red. masses --      1.0164                 1.4358                 1.2970
 Frc consts  --      0.6567                 1.1195                 1.0299
 IR Inten    --      0.0000                 0.0107                 1.3822

                      7                      8                      9
                     B1                     A2                     A1
 Frequencies --   1170.2508              1177.3506              1298.4317
 Red. masses --      1.2683                 1.4162                 2.6305
 Frc consts  --      1.0234                 1.1566                 2.6129
 IR Inten    --      3.7840                 0.0000                15.3393

                     10                     11                     12
                     B2                     A1                     B2
 Frequencies --   1506.8383              1539.1771              3088.2294
 Red. masses --      1.0743                 1.2988                 1.0438
 Frc consts  --      1.4371                 1.8129                 5.8651
 IR Inten    --      0.0000                 3.0770                38.9713

                     13                     14                     15
                     A1                     A2                     B1
 Frequencies --   3094.3345              3168.1421              3183.2385
 Red. masses --      1.0561                 1.1212                 1.1211
 Frc consts  --      5.9580                 6.6303                 6.6934
 IR Inten    --     14.9936                 0.0000                43.9712

 - Thermochemistry -
 -------------------
 Temperature   298.150 Kelvin.  Pressure   1.00000 Atm.
 Atom     1 has atomic number  8 and mass  15.99491

 Molecular mass:    44.02621 amu.
 Principal axes and moments of inertia in atomic units:
                           1         2         3
     Eigenvalues --    70.19724  81.13869 127.10476
           X            0.00000   0.00000   1.00000
           Y            1.00000   0.00000  -0.00000
           Z           -0.00000   1.00000  -0.00000
 This molecule is an asymmetric top.
 Rotational symmetry number  2.
 Rotational temperatures (Kelvin)      1.23387     1.06748     0.68144
 Rotational constants (GHZ):          25.70957    22.24267    14.19885
 Zero-point vibrational energy     150359.4 (Joules/Mol)
                                   35.93677 (Kcal/Mol)
 Vibrational temperatures:   1178.16  1217.78  1278.25  1506.69  1655.10
          (Kelvin)           1670.27  1683.73  1693.94  1868.15  2168.00
                             2214.53  4443.27  4452.06  4558.25  4579.97

 Zero-point correction=                           0.057269 (Hartree/Particle)
 Thermal correction to Energy=                    0.060425
 Thermal correction to Enthalpy=                  0.061369
 Thermal correction to Gibbs Free Energy=         0.033843
 Sum of electronic and zero-point Energies=           -153.798053
 Sum of electronic and thermal Energies=              -153.794896
 Sum of electronic and thermal Enthalpies=            -153.793952
 Sum of electronic and thermal Free Energies=         -153.821478

                     E (Thermal)             CV                S
                      KCal/Mol        Cal/Mol-Kelvin    Cal/Mol-Kelvin
 Total                   37.917              9.208             57.933
 Electronic               0.000              0.000              0.000
 Translational            0.889              2.981             37.273
 Rotational               0.889              2.981             19.832
 Vibrational             36.140              3.246              0.829

 Optimization completed.
    -- Stationary point found.
 Normal termination of Gaussian 16 at Thu Feb  3 12:19:26 2022.
