 Gaussian 16, Revision B.01,

 ---------------------------------------
 # b3lyp/gen opt freq CPHF(Grid=OneStep)
 ---------------------------------------

 -----------------------------
 Ethylene oxide, B3LYP/pcseg-2
 -----------------------------
 Symbolic Z-matrix:
 Charge =  0 Multiplicity = 1

 SCF Done:  E(RB3LYP) =  -153.855321402     A.U. after   11 cycles
 Optimization completed.
    -- Stationary point found.
 Normal termination of Gaussian 16 at Fri Sep 29 06:26:28 2023.

 ------------------------------------------------------------------
 #N Geom=AllCheck Guess=TCheck SCRF=Check GenChk RB3LYP/ChkBas Freq
 ------------------------------------------------------------------

 Structure from the checkpoint file:  "oxirane.chk"
 -----------------------------
 Ethylene oxide, B3LYP/pcseg-2
 -----------------------------
 Charge =  0 Multiplicity = 1

 SCF Done:  E(RB3LYP) =  -153.855321402     A.U. after    1 cycles

  Exact polarizability:  24.910   0.000  31.734   0.000  -0.000  24.000
 Approx polarizability:  32.290   0.000  41.896  -0.000   0.000  35.814

                      1                      2                      3
                     B1                     B2                     A1
 Frequencies --    818.8658               846.3961               888.4326
 Red. masses --      1.0238                 9.8399                 3.9448
 Frc consts  --      0.4045                 4.1533                 1.8345
 IR Inten    --      0.1026                11.3558                72.3018

                      4                      5                      6
                     A2                     A1                     B2
 Frequencies --   1047.2030              1150.3587              1160.8941
 Red. masses --      1.0164                 1.4358                 1.2970
 Frc consts  --      0.6567                 1.1195                 1.0299
 IR Inten    --      0.0000                 0.0106                 1.3823

                      7                      8                      9
                     B1                     A2                     A1
 Frequencies --   1170.2514              1177.3510              1298.4347
 Red. masses --      1.2683                 1.4162                 2.6305
 Frc consts  --      1.0234                 1.1566                 2.6129
 IR Inten    --      3.7836                 0.0000                15.3406

                     10                     11                     12
                     B2                     A1                     B2
 Frequencies --   1506.8385              1539.1798              3088.2265
 Red. masses --      1.0743                 1.2988                 1.0438
 Frc consts  --      1.4371                 1.8129                 5.8651
 IR Inten    --      0.0000                 3.0768                38.9725

                     13                     14                     15
                     A1                     A2                     B1
 Frequencies --   3094.3328              3168.1379              3183.2356
 Red. masses --      1.0561                 1.1212                 1.1211
 Frc consts  --      5.9580                 6.6303                 6.6934
 IR Inten    --     14.9918                 0.0000                43.9769

 - Thermochemistry -
 -------------------
 Temperature   298.150 Kelvin.  Pressure   1.00000 Atm.
 Atom     1 has atomic number  8 and mass  15.99491

 Molecular mass:    44.02621 amu.
 Principal axes and moments of inertia in atomic units:
                           1         2         3
     Eigenvalues --    70.19718  81.13865 127.10467
           X            0.00000   0.00000   1.00000
           Y            1.00000   0.00000  -0.00000
           Z           -0.00000   1.00000  -0.00000
 This molecule is an asymmetric top.
 Rotational symmetry number  2.
 Rotational temperatures (Kelvin)      1.23387     1.06748     0.68144
 Rotational constants (GHZ):          25.70960    22.24268    14.19886
 Zero-point vibrational energy     150359.5 (Joules/Mol)
                                   35.93677 (Kcal/Mol)
 Vibrational temperatures:   1178.17  1217.78  1278.26  1506.69  1655.11
          (Kelvin)           1670.27  1683.73  1693.95  1868.16  2168.00
                             2214.54  4443.27  4452.05  4558.24  4579.97

 Zero-point correction=                           0.057269 (Hartree/Particle)
 Thermal correction to Energy=                    0.060425
 Thermal correction to Enthalpy=                  0.061369
 Thermal correction to Gibbs Free Energy=         0.033843
 Sum of electronic and zero-point Energies=           -153.798053
 Sum of electronic and thermal Energies=              -153.794896
 Sum of electronic and thermal Enthalpies=            -153.793952
 Sum of electronic and thermal Free Energies=         -153.821478

                     E (Thermal)             CV                S
                      KCal/Mol        Cal/Mol-Kelvin    Cal/Mol-Kelvin
 Total                   37.917              9.208             57.933
 Electronic               0.000              0.000              0.000
 Translational            0.889              2.981             37.273
 Rotational               0.889              2.981             19.832
 Vibrational             36.140              3.246              0.829

 Optimization completed.
    -- Stationary point found.
 Normal termination of Gaussian 16 at Fri Sep 29 06:27:33 2023.
 Gaussian 16:  ES64L-G16RevB.01 20-Dec-2017

 ---------------------------------
 # rohf/gen geom=check guess=check
 ---------------------------------

 --------------------------------
 Ethylene oxide, ROHF/cc-pVTZ-F12
 --------------------------------
 Structure from the checkpoint file:  "oxirane.chk"
 Charge =  0 Multiplicity = 1

                         Standard orientation:
 ---------------------------------------------------------------------
 Center     Atomic      Atomic             Coordinates (Angstroms)
 Number     Number       Type             X           Y           Z
 ---------------------------------------------------------------------
      1          8           0        0.000000   -0.000000    0.853669
      2          6           0       -0.000000    0.731767   -0.372403
      3          6           0       -0.000000   -0.731767   -0.372403
      4          1           0       -0.917383    1.267532   -0.590129
      5          1           0        0.917383    1.267532   -0.590129
      6          1           0        0.917383   -1.267532   -0.590129
      7          1           0       -0.917383   -1.267532   -0.590129
 ---------------------------------------------------------------------

 SCF Done:  E(ROHF) =  -152.937093842     A.U. after   10 cycles

 The electronic state is 1-A1.
 Alpha  occ. eigenvalues --  -20.56980 -11.28532 -11.28451  -1.41161  -0.93423
 Alpha  occ. eigenvalues --   -0.86345  -0.70589  -0.66241  -0.54980  -0.54397
 Alpha  occ. eigenvalues --   -0.45277  -0.45237
 Alpha virt. eigenvalues --    0.04840   0.05596   0.06497   0.07371   0.09229
 Alpha virt. eigenvalues --    0.09365   0.10388   0.16668   0.17005   0.18619
 Alpha virt. eigenvalues --    0.22770   0.24069   0.24641   0.25196   0.26425

 Mulliken charges and spin densities:
               1          2
     1  O   -0.474081   0.000000
     2  C    0.030587   0.000000
     3  C    0.030587   0.000000
     4  H    0.103227   0.000000
     5  H    0.103227   0.000000
     6  H    0.103227   0.000000
     7  H    0.103227   0.000000
 Sum of Mulliken charges =  -0.00000   0.00000

 Dipole moment (field-independent basis, Debye):
    X=              0.0000    Y=              0.0000    Z=             -2.2188  Tot=              2.2188
 Quadrupole moment (field-independent basis, Debye-Ang):
   XX=            -17.2836   YY=            -16.2192   ZZ=            -21.0966
   XY=             -0.0000   XZ=              0.0000   YZ=             -0.0000

 Normal termination of Gaussian 16 at Fri Sep 29 06:27:43 2023.
