 Gaussian 16, Revision B.01,
 Gaussian 16:  ES64L-G16RevB.01 20-Dec-2017

 --------------------
 # b3lyp/gen opt freq
 --------------------

 ------------------------------
 phosphorus atom, B3LYP/pcseg-2
 ------------------------------
 Symbolic Z-matrix:
 Charge =  0 Multiplicity = 4

 SCF Done:  E(UB3LYP) =  -341.288958999     A.U. after    8 cycles
 Optimization completed.
    -- Stationary point found.
 Normal termination of Gaussian 16 at Tue Feb  1 11:58:59 2022.

 ------------------------------------------------------------------
 #N Geom=AllCheck Guess=TCheck SCRF=Check GenChk UB3LYP/ChkBas Freq
 ------------------------------------------------------------------

 Structure from the checkpoint file:  "/wrk/irikura/Gau-13123.chk"
 ------------------------------
 phosphorus atom, B3LYP/pcseg-2
 ------------------------------
 Charge =  0 Multiplicity = 4

                         Standard orientation:
 ---------------------------------------------------------------------
 Center     Atomic      Atomic             Coordinates (Angstroms)
 Number     Number       Type             X           Y           Z
 ---------------------------------------------------------------------
      1         15           0        0.000000    0.000000    0.000000
 ---------------------------------------------------------------------

 SCF Done:  E(UB3LYP) =  -341.288958999     A.U. after    1 cycles

 The electronic state is 4-A1G.
 Alpha  occ. eigenvalues --  -77.08411  -6.58372  -4.74649  -4.74649  -4.74649
 Alpha  occ. eigenvalues --   -0.59977  -0.26139  -0.26139  -0.26139
 Alpha virt. eigenvalues --    0.18991   0.18991   0.18991   0.28941   0.44762
 Alpha virt. eigenvalues --    0.44762   0.44762   0.44762   0.44762   1.37684
 Alpha virt. eigenvalues --    1.37684   1.37684   1.70044   1.70044   1.70044

  Beta  occ. eigenvalues --  -77.07081  -6.57025  -4.72624  -4.72624  -4.72624
  Beta  occ. eigenvalues --   -0.48443
  Beta virt. eigenvalues --   -0.11887  -0.11887  -0.11887   0.22423   0.22423
  Beta virt. eigenvalues --    0.22423   0.33207   0.54114   0.54114   0.54114
  Beta virt. eigenvalues --    0.54114   0.54114   1.42649   1.42649   1.42649

 Mulliken charges and spin densities:
               1          2
     1  P   -0.000000   3.000000
 Sum of Mulliken charges =  -0.00000   3.00000

 Dipole moment (field-independent basis, Debye):
    X=              0.0000    Y=              0.0000    Z=              0.0000  Tot=              0.0000
 Quadrupole moment (field-independent basis, Debye-Ang):
   XX=            -13.5525   YY=            -13.5525   ZZ=            -13.5525
   XY=              0.0000   XZ=              0.0000   YZ=              0.0000

  Exact polarizability:  12.322  -0.000  12.322   0.000   0.000  12.322
 Approx polarizability:  16.468  -0.000  16.468  -0.000  -0.000  16.468

 - Thermochemistry -
 -------------------
 Temperature   298.150 Kelvin.  Pressure   1.00000 Atm.
 Atom     1 has atomic number 15 and mass  30.97376
 Molecular mass:    30.97376 amu.
 Zero-point vibrational energy          0.0 (Joules/Mol)
                                    0.00000 (Kcal/Mol)
 Vibrational temperatures:
          (Kelvin)

 Zero-point correction=                           0.000000 (Hartree/Particle)
 Thermal correction to Energy=                    0.001416
 Thermal correction to Enthalpy=                  0.002360
 Thermal correction to Gibbs Free Energy=        -0.016160
 Sum of electronic and zero-point Energies=           -341.288959
 Sum of electronic and thermal Energies=              -341.287543
 Sum of electronic and thermal Enthalpies=            -341.286599
 Sum of electronic and thermal Free Energies=         -341.305119

                     E (Thermal)             CV                S
                      KCal/Mol        Cal/Mol-Kelvin    Cal/Mol-Kelvin
 Total                    0.889              2.981             38.979
 Electronic               0.000              0.000              2.755
 Translational            0.889              2.981             36.224
 Rotational               0.000              0.000              0.000
 Vibrational              0.000              0.000              0.000

 Optimization completed.
    -- Stationary point found.
 Normal termination of Gaussian 16 at Tue Feb  1 11:59:03 2022.
