 Gaussian 16, Revision B.01,
 Gaussian 16:  ES64L-G16RevB.01 20-Dec-2017

 --------------------
 # b3lyp/gen opt freq
 --------------------

 -----------------------------
 4-chlorophenyl, B3LYP/pcseg-2
 -----------------------------
 Symbolic Z-matrix:
 Charge =  0 Multiplicity = 2

 SCF Done:  E(UB3LYP) =  -691.283590500     A.U. after   16 cycles
 SCF Done:  E(UB3LYP) =  -691.283678090     A.U. after   11 cycles
 Optimization completed.
    -- Stationary point found.
 Normal termination of Gaussian 16 at Fri Jun 17 14:32:58 2022.

 ------------------------------------------------------------------
 #N Geom=AllCheck Guess=TCheck SCRF=Check GenChk UB3LYP/ChkBas Freq
 ------------------------------------------------------------------

 Structure from the checkpoint file:  "/wrk/irikura/Gau-9064.chk"
 -----------------------------
 4-chlorophenyl, B3LYP/pcseg-2
 -----------------------------
 Charge =  0 Multiplicity = 2

                         Standard orientation:
 ---------------------------------------------------------------------
 Center     Atomic      Atomic             Coordinates (Angstroms)
 Number     Number       Type             X           Y           Z
 ---------------------------------------------------------------------
      1          6           0        0.000000    0.000000   -2.262029
      2          6           0        0.000000    1.218914   -1.636594
      3          6           0       -0.000000   -1.218914   -1.636594
      4          1           0        0.000000    2.152843   -2.181891
      5          1           0       -0.000000   -2.152843   -2.181891
      6          6           0        0.000000    1.214814   -0.238879
      7          6           0       -0.000000   -1.214814   -0.238879
      8          1           0        0.000000    2.142454    0.315173
      9          1           0       -0.000000   -2.142454    0.315173
     10          6           0        0.000000   -0.000000    0.436105
     11         17           0        0.000000   -0.000000    2.187920
 ---------------------------------------------------------------------

 SCF Done:  E(UB3LYP) =  -691.283678090     A.U. after    1 cycles

 The electronic state is 2-A1.
 Alpha  occ. eigenvalues -- -101.51838 -10.24582 -10.21319 -10.20276 -10.20275
 Alpha  occ. eigenvalues --  -10.20083 -10.20081  -9.46351  -7.22511  -7.21638
 Alpha  occ. eigenvalues --   -7.21611  -0.90618  -0.85243  -0.77828  -0.74238
 Alpha  occ. eigenvalues --   -0.63877  -0.60884  -0.52599  -0.48943  -0.47761
 Alpha  occ. eigenvalues --   -0.45528  -0.41959  -0.41288  -0.38655  -0.34907
 Alpha  occ. eigenvalues --   -0.32277  -0.28225  -0.26341  -0.26287
 Alpha virt. eigenvalues --   -0.03880  -0.02987   0.00486   0.03395   0.03993
 Alpha virt. eigenvalues --    0.05267   0.07230   0.10170   0.11680   0.14345
 Alpha virt. eigenvalues --    0.15608   0.15980   0.16727   0.18761   0.20401

  Beta  occ. eigenvalues -- -101.51839 -10.24644 -10.20149 -10.20149 -10.20085
  Beta  occ. eigenvalues --  -10.20080 -10.19692  -9.46352  -7.22506  -7.21647
  Beta  occ. eigenvalues --   -7.21611  -0.90312  -0.84557  -0.77488  -0.73164
  Beta  occ. eigenvalues --   -0.63556  -0.59960  -0.51700  -0.48306  -0.47116
  Beta  occ. eigenvalues --   -0.45140  -0.41166  -0.41053  -0.38188  -0.34608
  Beta  occ. eigenvalues --   -0.32255  -0.28247  -0.25767
  Beta virt. eigenvalues --   -0.10323  -0.03944  -0.02096   0.00546   0.03415
  Beta virt. eigenvalues --    0.04052   0.05471   0.07255   0.10691   0.12321
  Beta virt. eigenvalues --    0.14821   0.15688   0.16616   0.16769   0.18762

 Mulliken charges and spin densities:
               1          2
     1  C    0.000447   0.963058
     2  C   -0.042528  -0.051172
     3  C   -0.042528  -0.051172
     4  H    0.045713   0.021021
     5  H    0.045713   0.021021
     6  C   -0.035123   0.059235
     7  C   -0.035123   0.059235
     8  H    0.045790   0.008405
     9  H    0.045790   0.008405
    10  C    0.105749  -0.036765
    11  Cl  -0.133900  -0.001269
 Sum of Mulliken charges =   0.00000   1.00000

 Dipole moment (field-independent basis, Debye):
    X=             -0.0000    Y=             -0.0000    Z=             -0.8815  Tot=              0.8815
 Quadrupole moment (field-independent basis, Debye-Ang):
   XX=            -50.5086   YY=            -40.9100   ZZ=            -49.9930
   XY=              0.0000   XZ=              0.0000   YZ=             -0.0000

  Exact polarizability:  44.285   0.000  83.517  -0.000   0.000 101.227
 Approx polarizability:  68.878   0.000 142.012   0.000   0.000 160.209

                      1                      2                      3
                     B1                     B2                     A2
 Frequencies --    199.7049               297.5422               406.1889
 Red. masses --      7.4794                 5.9212                 2.8565
 Frc consts  --      0.1757                 0.3089                 0.2777
 IR Inten    --      0.1882                 0.2625                 0.0000

                      4                      5                      6
                     A1                     B1                     B2
 Frequencies --    418.8713               464.7013               610.9643
 Red. masses --     13.4523                 3.2147                 7.0199
 Frc consts  --      1.3906                 0.4090                 1.5439
 IR Inten    --      2.6337                21.8399                 0.1088

                      7                      8                      9
                     B1                     A1                     B1
 Frequencies --    680.4948               702.1986               802.3495
 Red. masses --      3.6338                 7.1087                 1.4206
 Frc consts  --      0.9914                 2.0652                 0.5388
 IR Inten    --      1.0558                30.6361                58.6323

                     10                     11                     12
                     A2                     B1                     A2
 Frequencies --    806.2364               949.6567               968.4548
 Red. masses --      1.2454                 1.3545                 1.3768
 Frc consts  --      0.4770                 0.7197                 0.7608
 IR Inten    --      0.0000                 0.1655                 0.0000

                     13                     14                     15
                     A1                     A1                     A1
 Frequencies --    995.4639              1050.8698              1088.7135
 Red. masses --      7.6604                 2.3496                 3.8285
 Frc consts  --      4.4725                 1.5287                 2.6737
 IR Inten    --      5.5732                12.2492                44.0722

                     16                     17                     18
                     B2                     A1                     B2
 Frequencies --   1103.1271              1176.7022              1294.0669
 Red. masses --      1.4107                 1.1489                 2.2630
 Frc consts  --      1.0114                 0.9373                 2.2328
 IR Inten    --      4.7637                 0.9225                 0.2940

                     19                     20                     21
                     B2                     B2                     A1
 Frequencies --   1317.2935              1385.7814              1475.9895
 Red. masses --      1.9815                 2.9519                 2.1706
 Frc consts  --      2.0259                 3.3400                 2.7860
 IR Inten    --      0.9599                 4.2586                21.2682

                     22                     23                     24
                     A1                     B2                     B2
 Frequencies --   1561.3942              1619.6538              3180.6432
 Red. masses --      4.9451                 7.6762                 1.0865
 Frc consts  --      7.1031                11.8643                 6.4760
 IR Inten    --     25.3843                 0.0023                 1.3481

                     25                     26                     27
                     A1                     B2                     A1
 Frequencies --   3180.6698              3201.0090              3201.8686
 Red. masses --      1.0883                 1.0931                 1.0942
 Frc consts  --      6.4868                 6.5989                 6.6095
 IR Inten    --      0.8618                 2.7756                 0.0686

 - Thermochemistry -
 -------------------
 Temperature   298.150 Kelvin.  Pressure   1.00000 Atm.
 Atom     1 has atomic number  6 and mass  12.00000

 Molecular mass:   111.00015 amu.
 Principal axes and moments of inertia in atomic units:
                           1         2         3
     Eigenvalues --   320.219531093.537731413.75726
           X            0.00000  -0.00000   1.00000
           Y            0.00000   1.00000   0.00000
           Z            1.00000  -0.00000   0.00000
 This molecule is an asymmetric top.
 Rotational symmetry number  2.
 Rotational temperatures (Kelvin)      0.27048     0.07921     0.06127
 Rotational constants (GHZ):           5.63595     1.65037     1.27656
 Zero-point vibrational energy     204206.2 (Joules/Mol)
                                   48.80645 (Kcal/Mol)
 Warning -- explicit consideration of   6 degrees of freedom as
           vibrations may cause significant error
 Vibrational temperatures:    287.33   428.10   584.42   602.66   668.60
          (Kelvin)            879.04   979.08  1010.31  1154.40  1159.99
                             1366.34  1393.39  1432.25  1511.97  1566.42
                             1587.15  1693.01  1861.87  1895.29  1993.83
                             2123.62  2246.50  2330.32  4576.24  4576.27
                             4605.54  4606.77

 Zero-point correction=                           0.077778 (Hartree/Particle)
 Thermal correction to Energy=                    0.083247
 Thermal correction to Enthalpy=                  0.084192
 Thermal correction to Gibbs Free Energy=         0.048073
 Sum of electronic and zero-point Energies=           -691.205900
 Sum of electronic and thermal Energies=              -691.200431
 Sum of electronic and thermal Enthalpies=            -691.199486
 Sum of electronic and thermal Free Energies=         -691.235605

                     E (Thermal)             CV                S
                      KCal/Mol        Cal/Mol-Kelvin    Cal/Mol-Kelvin
 Total                   52.239             20.619             76.018
 Electronic               0.000              0.000              1.377
 Translational            0.889              2.981             40.029
 Rotational               0.889              2.981             26.318
 Vibrational             50.461             14.657              8.294
 Vibration     1          0.638              1.840              2.136
 Vibration     2          0.691              1.678              1.431
 Vibration     3          0.771              1.457              0.940
 Vibration     4          0.782              1.429              0.896
 Vibration     5          0.822              1.328              0.753
 Vibration     6          0.970              1.009              0.431

 Optimization completed.
    -- Stationary point found.
 Normal termination of Gaussian 16 at Fri Jun 17 14:35:37 2022.
