 Gaussian 16, Revision B.01,

 ---------------------------------------
 # b3lyp/gen opt freq CPHF(Grid=OneStep)
 ---------------------------------------

 -----------------------------
 4-chlorophenyl, B3LYP/pcseg-2
 -----------------------------
 Symbolic Z-matrix:
 Charge =  0 Multiplicity = 2

 SCF Done:  E(UB3LYP) =  -691.283678090     A.U. after   17 cycles
 Optimization completed.
    -- Stationary point found.
 Normal termination of Gaussian 16 at Fri Sep 29 05:09:59 2023.

 ------------------------------------------------------------------
 #N Geom=AllCheck Guess=TCheck SCRF=Check GenChk UB3LYP/ChkBas Freq
 ------------------------------------------------------------------

 Structure from the checkpoint file:  "pC6H4Cl.chk"
 -----------------------------
 4-chlorophenyl, B3LYP/pcseg-2
 -----------------------------
 Charge =  0 Multiplicity = 2

 SCF Done:  E(UB3LYP) =  -691.283678090     A.U. after    1 cycles

  Exact polarizability:  44.286   0.000  83.516   0.000   0.000 101.228
 Approx polarizability:  68.878   0.000 142.012   0.000  -0.000 160.209

                      1                      2                      3
                     B1                     B2                     A2
 Frequencies --    199.7021               297.5334               406.1873
 Red. masses --      7.4795                 5.9212                 2.8565
 Frc consts  --      0.1757                 0.3088                 0.2777
 IR Inten    --      0.1882                 0.2624                 0.0000

                      4                      5                      6
                     A1                     B1                     B2
 Frequencies --    418.8735               464.6994               610.9769
 Red. masses --     13.4522                 3.2148                 7.0200
 Frc consts  --      1.3906                 0.4090                 1.5440
 IR Inten    --      2.6345                21.8377                 0.1089

                      7                      8                      9
                     B1                     A1                     B1
 Frequencies --    680.4961               702.2060               802.3504
 Red. masses --      3.6338                 7.1087                 1.4206
 Frc consts  --      0.9914                 2.0652                 0.5388
 IR Inten    --      1.0560                30.6390                58.6290

                     10                     11                     12
                     A2                     B1                     A2
 Frequencies --    806.2439               949.6568               968.4528
 Red. masses --      1.2454                 1.3545                 1.3768
 Frc consts  --      0.4770                 0.7197                 0.7608
 IR Inten    --      0.0000                 0.1654                 0.0000

                     13                     14                     15
                     A1                     A1                     A1
 Frequencies --    995.4658              1050.8711              1088.7198
 Red. masses --      7.6605                 2.3497                 3.8283
 Frc consts  --      4.4726                 1.5288                 2.6735
 IR Inten    --      5.5765                12.2509                44.0766

                     16                     17                     18
                     B2                     A1                     B2
 Frequencies --   1103.1306              1176.7040              1294.0687
 Red. masses --      1.4107                 1.1489                 2.2636
 Frc consts  --      1.0114                 0.9373                 2.2334
 IR Inten    --      4.7633                 0.9240                 0.2943

                     19                     20                     21
                     B2                     B2                     A1
 Frequencies --   1317.2976              1385.7958              1475.9914
 Red. masses --      1.9811                 2.9519                 2.1706
 Frc consts  --      2.0255                 3.3400                 2.7861
 IR Inten    --      0.9598                 4.2567                21.2628

                     22                     23                     24
                     A1                     B2                     B2
 Frequencies --   1561.3909              1619.6618              3180.6494
 Red. masses --      4.9449                 7.6763                 1.0865
 Frc consts  --      7.1029                11.8646                 6.4760
 IR Inten    --     25.3812                 0.0023                 1.3484

                     25                     26                     27
                     A1                     B2                     A1
 Frequencies --   3180.6756              3201.0234              3201.8825
 Red. masses --      1.0883                 1.0931                 1.0942
 Frc consts  --      6.4869                 6.5990                 6.6096
 IR Inten    --      0.8609                 2.7763                 0.0680

 - Thermochemistry -
 -------------------
 Temperature   298.150 Kelvin.  Pressure   1.00000 Atm.
 Atom     1 has atomic number  6 and mass  12.00000

 Molecular mass:   111.00015 amu.
 Principal axes and moments of inertia in atomic units:
                           1         2         3
     Eigenvalues --   320.219671093.537771413.75744
           X            0.00000   0.00000   1.00000
           Y            0.00000   1.00000   0.00000
           Z            1.00000   0.00000   0.00000
 This molecule is an asymmetric top.
 Rotational symmetry number  2.
 Rotational temperatures (Kelvin)      0.27048     0.07921     0.06127
 Rotational constants (GHZ):           5.63595     1.65037     1.27656
 Zero-point vibrational energy     204206.8 (Joules/Mol)
                                   48.80659 (Kcal/Mol)
 Warning -- explicit consideration of   6 degrees of freedom as
           vibrations may cause significant error
 Vibrational temperatures:    287.33   428.08   584.41   602.67   668.60
          (Kelvin)            879.06   979.08  1010.32  1154.40  1160.01
                             1366.34  1393.39  1432.25  1511.97  1566.43
                             1587.16  1693.01  1861.88  1895.30  1993.85
                             2123.62  2246.49  2330.33  4576.25  4576.28
                             4605.56  4606.79

 Zero-point correction=                           0.077778 (Hartree/Particle)
 Thermal correction to Energy=                    0.083248
 Thermal correction to Enthalpy=                  0.084192
 Thermal correction to Gibbs Free Energy=         0.048073
 Sum of electronic and zero-point Energies=           -691.205900
 Sum of electronic and thermal Energies=              -691.200430
 Sum of electronic and thermal Enthalpies=            -691.199486
 Sum of electronic and thermal Free Energies=         -691.235605

                     E (Thermal)             CV                S
                      KCal/Mol        Cal/Mol-Kelvin    Cal/Mol-Kelvin
 Total                   52.239             20.619             76.018
 Electronic               0.000              0.000              1.377
 Translational            0.889              2.981             40.029
 Rotational               0.889              2.981             26.318
 Vibrational             50.461             14.657              8.294
 Vibration     1          0.638              1.840              2.136
 Vibration     2          0.691              1.678              1.431
 Vibration     3          0.771              1.457              0.940
 Vibration     4          0.782              1.429              0.896
 Vibration     5          0.822              1.328              0.753
 Vibration     6          0.970              1.009              0.431

 Optimization completed.
    -- Stationary point found.
 Normal termination of Gaussian 16 at Fri Sep 29 05:23:51 2023.
 Gaussian 16:  ES64L-G16RevB.01 20-Dec-2017

 ---------------------------------
 # rohf/gen geom=check guess=check
 ---------------------------------

 --------------------------------
 4-chlorophenyl, ROHF/cc-pVTZ-F12
 --------------------------------
 Structure from the checkpoint file:  "pC6H4Cl.chk"
 Charge =  0 Multiplicity = 2

                         Standard orientation:
 ---------------------------------------------------------------------
 Center     Atomic      Atomic             Coordinates (Angstroms)
 Number     Number       Type             X           Y           Z
 ---------------------------------------------------------------------
      1          6           0        0.000000   -0.000000   -2.262029
      2          6           0       -0.000000    1.218914   -1.636594
      3          6           0       -0.000000   -1.218914   -1.636594
      4          1           0       -0.000000    2.152843   -2.181891
      5          1           0       -0.000000   -2.152843   -2.181891
      6          6           0       -0.000000    1.214814   -0.238879
      7          6           0       -0.000000   -1.214814   -0.238879
      8          1           0       -0.000000    2.142454    0.315173
      9          1           0       -0.000000   -2.142454    0.315173
     10          6           0        0.000000    0.000000    0.436105
     11         17           0        0.000000    0.000000    2.187920
 ---------------------------------------------------------------------

 SCF Done:  E(ROHF) =  -689.077761585     A.U. after   19 cycles

 The electronic state is 2-A1.
 Alpha  occ. eigenvalues -- -104.84080 -11.30633 -11.25947 -11.25943 -11.25903
 Alpha  occ. eigenvalues --  -11.25613 -11.25582 -10.56584  -8.03286  -8.03132
 Alpha  occ. eigenvalues --   -8.03124  -1.19475  -1.11912  -1.04152  -0.98542
 Alpha  occ. eigenvalues --   -0.85579  -0.80680  -0.68347  -0.65444  -0.64473
 Alpha  occ. eigenvalues --   -0.61417  -0.55108  -0.54507  -0.53210  -0.47502
 Alpha  occ. eigenvalues --   -0.45788  -0.36016  -0.34181  -0.10456
 Alpha virt. eigenvalues --    0.04718   0.04924   0.05542   0.07090   0.07180
 Alpha virt. eigenvalues --    0.07588   0.08682   0.09228   0.09649   0.10129
 Alpha virt. eigenvalues --    0.11032   0.11710   0.12088   0.12310   0.12494

 Mulliken charges and spin densities:
               1          2
     1  C   -0.038168   0.916024
     2  C   -0.166941   0.018507
     3  C   -0.166941   0.018507
     4  H    0.178521   0.004488
     5  H    0.178521   0.004488
     6  C   -0.132896   0.014800
     7  C   -0.132896   0.014800
     8  H    0.167220   0.002380
     9  H    0.167220   0.002380
    10  C    0.061377   0.003338
    11  Cl  -0.115019   0.000285
 Sum of Mulliken charges =  -0.00000   1.00000

 Dipole moment (field-independent basis, Debye):
    X=             -0.0000    Y=              0.0000    Z=             -1.2262  Tot=              1.2262
 Quadrupole moment (field-independent basis, Debye-Ang):
   XX=            -51.3228   YY=            -40.6999   ZZ=            -49.7886
   XY=              0.0000   XZ=              0.0000   YZ=             -0.0000

 Normal termination of Gaussian 16 at Fri Sep 29 05:30:35 2023.
