 Gaussian 16, Revision B.01,

 ---------------------------------------
 # b3lyp/gen opt freq CPHF(Grid=OneStep)
 ---------------------------------------

 ------------------------
 n-pentane, B3LYP/pcseg-2
 ------------------------
 Symbolic Z-matrix:
 Charge =  0 Multiplicity = 1

 SCF Done:  E(RB3LYP) =  -197.853696691     A.U. after   11 cycles
 Optimization completed.
    -- Stationary point found.
 Normal termination of Gaussian 16 at Fri Sep 29 18:17:27 2023.

 ------------------------------------------------------------------
 #N Geom=AllCheck Guess=TCheck SCRF=Check GenChk RB3LYP/ChkBas Freq
 ------------------------------------------------------------------

 Structure from the checkpoint file:  "pentane.chk"
 ------------------------
 n-pentane, B3LYP/pcseg-2
 ------------------------
 Charge =  0 Multiplicity = 1

 SCF Done:  E(RB3LYP) =  -197.853696691     A.U. after    1 cycles

  Exact polarizability:  56.992   0.000  75.997   0.000  -0.000  60.747
 Approx polarizability:  84.481  -0.000  85.203  -0.000   0.000  85.569

                      1                      2                      3
                     A2                     B1                     A1
 Frequencies --    107.8998               110.5957               178.0425
 Red. masses --      1.5294                 2.2940                 2.5274
 Frc consts  --      0.0105                 0.0165                 0.0472
 IR Inten    --      0.0000                 0.0060                 0.0007

                      4                      5                      6
                     B1                     A2                     B2
 Frequencies --    240.0741               246.5523               396.7454
 Red. masses --      1.0789                 1.1525                 2.3312
 Frc consts  --      0.0366                 0.0413                 0.2162
 IR Inten    --      0.0000                 0.0000                 0.0029

                      7                      8                      9
                     A1                     B1                     A2
 Frequencies --    397.0657               733.5926               767.2180
 Red. masses --      3.3532                 1.0656                 1.1129
 Frc consts  --      0.3115                 0.3379                 0.3859
 IR Inten    --      0.0002                 3.8237                 0.0000

                     10                     11                     12
                     B1                     A1                     B2
 Frequencies --    868.2653               874.0496               924.9482
 Red. masses --      1.1563                 1.7515                 2.2506
 Frc consts  --      0.5136                 0.7884                 1.1345
 IR Inten    --      0.9665                 0.8483                 2.1835

                     13                     14                     15
                     A2                     B2                     A1
 Frequencies --    995.9531              1038.7464              1041.3801
 Red. masses --      1.1237                 1.8942                 3.0619
 Frc consts  --      0.6567                 1.2042                 1.9564
 IR Inten    --      0.0000                 0.7057                 0.5339

                     16                     17                     18
                     B2                     A1                     B1
 Frequencies --   1073.8791              1163.1393              1209.5494
 Red. masses --      2.0092                 2.2916                 1.8181
 Frc consts  --      1.3651                 1.8266                 1.5672
 IR Inten    --      1.1261                 0.9759                 0.0261

                     19                     20                     21
                     A2                     B2                     B1
 Frequencies --   1269.4473              1298.5451              1326.6704
 Red. masses --      1.3257                 1.3163                 1.1537
 Frc consts  --      1.2587                 1.3077                 1.1963
 IR Inten    --      0.0000                 2.4392                 0.7777

                     22                     23                     24
                     A2                     A1                     B2
 Frequencies --   1333.6621              1372.5810              1397.1168
 Red. masses --      1.0475                 1.4123                 1.5659
 Frc consts  --      1.0977                 1.5677                 1.8008
 IR Inten    --      0.0000                 0.2101                 2.3459

                     25                     26                     27
                     A1                     B2                     A1
 Frequencies --   1414.4835              1414.5956              1485.4838
 Red. masses --      1.2445                 1.2365                 1.0703
 Frc consts  --      1.4671                 1.4578                 1.3915
 IR Inten    --      2.9188                 0.7321                 0.0133

                     28                     29                     30
                     B2                     A1                     B1
 Frequencies --   1488.4251              1496.8122              1498.5686
 Red. masses --      1.0588                 1.0517                 1.0388
 Frc consts  --      1.3820                 1.3883                 1.3744
 IR Inten    --      0.9758                 0.3905                14.8642

                     31                     32                     33
                     A2                     B2                     A1
 Frequencies --   1499.4086              1505.9044              1514.8504
 Red. masses --      1.0410                 1.0755                 1.0926
 Frc consts  --      1.3789                 1.4369                 1.4772
 IR Inten    --      0.0000                 1.7096                 9.8839

                     34                     35                     36
                     A1                     B2                     B1
 Frequencies --   2995.2949              3005.7221              3012.9578
 Red. masses --      1.0573                 1.0589                 1.0997
 Frc consts  --      5.5890                 5.6362                 5.8817
 IR Inten    --      5.6540                 0.0592                 0.2450

                     37                     38                     39
                     A1                     B2                     A1
 Frequencies --   3013.6387              3022.7643              3023.8713
 Red. masses --      1.0597                 1.0351                 1.0356
 Frc consts  --      5.6707                 5.5726                 5.5794
 IR Inten    --     77.2615                46.1899                36.2206

                     40                     41                     42
                     A2                     B1                     A2
 Frequencies --   3030.9774              3048.4029              3081.7507
 Red. masses --      1.1029                 1.1049                 1.1025
 Frc consts  --      5.9700                 6.0497                 6.1691
 IR Inten    --      0.0000                43.2350                 0.0000

                     43                     44                     45
                     B1                     B2                     A1
 Frequencies --   3083.3813              3087.4523              3087.7870
 Red. masses --      1.1023                 1.1011                 1.1007
 Frc consts  --      6.1745                 6.1843                 6.1831
 IR Inten    --    122.9265                32.6011                50.3944

 - Thermochemistry -
 -------------------
 Temperature   298.150 Kelvin.  Pressure   1.00000 Atm.
 Atom     1 has atomic number  6 and mass  12.00000

 Molecular mass:    72.09390 amu.
 Principal axes and moments of inertia in atomic units:
                           1         2         3
     Eigenvalues --   105.10479 933.73820 983.52156
           X            0.00000   0.00000   1.00000
           Y            1.00000   0.00000  -0.00000
           Z           -0.00000   1.00000  -0.00000
 This molecule is an asymmetric top.
 Rotational symmetry number  2.
 Rotational temperatures (Kelvin)      0.82407     0.09276     0.08807
 Rotational constants (GHZ):          17.17088     1.93281     1.83498
 Zero-point vibrational energy     419759.2 (Joules/Mol)
                                  100.32485 (Kcal/Mol)
 Warning -- explicit consideration of   7 degrees of freedom as
           vibrations may cause significant error
 Vibrational temperatures:    155.24   159.12   256.16   345.41   354.73
          (Kelvin)            570.83   571.29  1055.48  1103.86  1249.24
                             1257.56  1330.79  1432.95  1494.52  1498.31
                             1545.07  1673.50  1740.27  1826.45  1868.32
                             1908.78  1918.84  1974.84  2010.14  2035.13
                             2035.29  2137.28  2141.51  2153.58  2156.11
                             2157.31  2166.66  2179.53  4309.56  4324.56
                             4334.97  4335.95  4349.08  4350.68  4360.90
                             4385.97  4433.95  4436.30  4442.16  4442.64

 Zero-point correction=                           0.159878 (Hartree/Particle)
 Thermal correction to Energy=                    0.166987
 Thermal correction to Enthalpy=                  0.167931
 Thermal correction to Gibbs Free Energy=         0.130171
 Sum of electronic and zero-point Energies=           -197.693819
 Sum of electronic and thermal Energies=              -197.686710
 Sum of electronic and thermal Enthalpies=            -197.685766
 Sum of electronic and thermal Free Energies=         -197.723526

                     E (Thermal)             CV                S
                      KCal/Mol        Cal/Mol-Kelvin    Cal/Mol-Kelvin
 Total                  104.786             24.555             79.472
 Electronic               0.000              0.000              0.000
 Translational            0.889              2.981             38.743
 Rotational               0.889              2.981             24.693
 Vibrational            103.008             18.593             16.037
 Vibration     1          0.606              1.943              3.306
 Vibration     2          0.606              1.941              3.258
 Vibration     3          0.628              1.869              2.349
 Vibration     4          0.657              1.779              1.802
 Vibration     5          0.661              1.768              1.755
 Vibration     6          0.763              1.477              0.975
 Vibration     7          0.764              1.476              0.973

 Optimization completed.
    -- Stationary point found.
 Normal termination of Gaussian 16 at Fri Sep 29 18:29:49 2023.
 Gaussian 16:  ES64L-G16RevB.01 20-Dec-2017

 ---------------------------------
 # rohf/gen geom=check guess=check
 ---------------------------------

 ---------------------------
 n-pentane, ROHF/cc-pVTZ-F12
 ---------------------------
 Structure from the checkpoint file:  "pentane.chk"
 Charge =  0 Multiplicity = 1

                         Standard orientation:
 ---------------------------------------------------------------------
 Center     Atomic      Atomic             Coordinates (Angstroms)
 Number     Number       Type             X           Y           Z
 ---------------------------------------------------------------------
      1          6           0       -0.000000    0.000000    0.314104
      2          6           0       -0.000000    1.280664   -0.521345
      3          6           0       -0.000000   -1.280664   -0.521345
      4          6           0       -0.000000    2.553962    0.323125
      5          6           0       -0.000000   -2.553962    0.323125
      6          1           0        0.874457   -0.000000    0.973821
      7          1           0       -0.874457    0.000000    0.973821
      8          1           0        0.873901    1.280001   -1.179795
      9          1           0       -0.873901    1.280001   -1.179795
     10          1           0       -0.873901   -1.280001   -1.179795
     11          1           0        0.873901   -1.280001   -1.179795
     12          1           0       -0.000000    3.448228   -0.301544
     13          1           0       -0.000000   -3.448228   -0.301544
     14          1           0       -0.880552    2.599842    0.967162
     15          1           0        0.880552    2.599842    0.967162
     16          1           0        0.880552   -2.599842    0.967162
     17          1           0       -0.880552   -2.599842    0.967162
 ---------------------------------------------------------------------

 SCF Done:  E(ROHF) =  -196.414603200     A.U. after    9 cycles

 The electronic state is 1-A1.
 Alpha  occ. eigenvalues --  -11.21343 -11.21336 -11.21102 -11.20758 -11.20757
 Alpha  occ. eigenvalues --   -1.07777  -1.01348  -0.91872  -0.82026  -0.78429
 Alpha  occ. eigenvalues --   -0.64481  -0.59665  -0.59174  -0.55341  -0.54701
 Alpha  occ. eigenvalues --   -0.52592  -0.49449  -0.47612  -0.46060  -0.45854
 Alpha  occ. eigenvalues --   -0.44816
 Alpha virt. eigenvalues --    0.04728   0.04937   0.05288   0.06706   0.07140
 Alpha virt. eigenvalues --    0.07530   0.08615   0.08961   0.09794   0.10316
 Alpha virt. eigenvalues --    0.11665   0.11848   0.13070   0.13644   0.14751

 Mulliken charges and spin densities:
               1          2
     1  C   -0.079582   0.000000
     2  C   -0.135270   0.000000
     3  C   -0.135270   0.000000
     4  C   -0.309634   0.000000
     5  C   -0.309634   0.000000
     6  H    0.070060   0.000000
     7  H    0.070060   0.000000
     8  H    0.077254   0.000000
     9  H    0.077254   0.000000
    10  H    0.077254   0.000000
    11  H    0.077254   0.000000
    12  H    0.086889   0.000000
    13  H    0.086889   0.000000
    14  H    0.086619   0.000000
    15  H    0.086619   0.000000
    16  H    0.086619   0.000000
    17  H    0.086619   0.000000
 Sum of Mulliken charges =  -0.00000   0.00000

 Dipole moment (field-independent basis, Debye):
    X=             -0.0000    Y=              0.0000    Z=             -0.0839  Tot=              0.0839
 Quadrupole moment (field-independent basis, Debye-Ang):
   XX=            -34.6646   YY=            -36.4199   ZZ=            -35.7739
   XY=             -0.0000   XZ=             -0.0000   YZ=              0.0000

 Normal termination of Gaussian 16 at Fri Sep 29 18:31:55 2023.
