 Gaussian 16, Revision B.01,

 ---------------------------------------
 # b3lyp/gen opt freq CPHF(Grid=OneStep)
 ---------------------------------------

 ------------------------------
 phenylacetylene, B3LYP/pcseg-2
 ------------------------------
 Symbolic Z-matrix:
 Charge =  0 Multiplicity = 1

 SCF Done:  E(RB3LYP) =  -308.514595721     A.U. after   14 cycles
 Optimization completed.
    -- Stationary point found.
 Normal termination of Gaussian 16 at Fri Sep 29 00:23:54 2023.

 ------------------------------------------------------------------
 #N Geom=AllCheck Guess=TCheck SCRF=Check GenChk RB3LYP/ChkBas Freq
 ------------------------------------------------------------------

 Structure from the checkpoint file:  "phcch.chk"
 ------------------------------
 phenylacetylene, B3LYP/pcseg-2
 ------------------------------
 Charge =  0 Multiplicity = 1

 SCF Done:  E(RB3LYP) =  -308.514595721     A.U. after    1 cycles

  Exact polarizability:  48.437   0.000  86.716  -0.000   0.000 141.449
 Approx polarizability:  73.860   0.000 143.130   0.000  -0.000 228.291

                      1                      2                      3
                     B1                     B2                     B1
 Frequencies --    139.5073               160.1826               367.6423
 Red. masses --      3.9787                 3.7908                 4.0490
 Frc consts  --      0.0456                 0.0573                 0.3224
 IR Inten    --      1.9412                 1.4393                 4.2561

                      4                      5                      6
                     A2                     A1                     B2
 Frequencies --    411.9275               474.3318               539.7992
 Red. masses --      2.8835                 7.0600                 5.7028
 Frc consts  --      0.2883                 0.9359                 0.9790
 IR Inten    --      0.0000                 0.2919                 5.1407

                      7                      8                      9
                     B1                     B2                     B1
 Frequencies --    552.4829               638.5945               644.1239
 Red. masses --      3.3915                 5.9245                 1.2851
 Frc consts  --      0.6099                 1.4235                 0.3141
 IR Inten    --      4.7817                 0.9004                50.8365

                     10                     11                     12
                     B2                     B1                     A1
 Frequencies --    689.0506               708.2739               777.9714
 Red. masses --      1.3005                 1.8451                 5.6974
 Frc consts  --      0.3638                 0.5454                 2.0317
 IR Inten    --     43.5145                34.1161                 2.6707

                     13                     14                     15
                     B1                     A2                     B1
 Frequencies --    779.5899               861.1402               944.1096
 Red. masses --      1.8015                 1.2475                 1.4207
 Frc consts  --      0.6451                 0.5451                 0.7461
 IR Inten    --     46.9027                 0.0000                 3.9465

                     16                     17                     18
                     A2                     B1                     A1
 Frequencies --    997.6736              1014.3164              1019.4938
 Red. masses --      1.3718                 1.2980                 6.2659
 Frc consts  --      0.8045                 0.7868                 3.8371
 IR Inten    --      0.0000                 0.0600                 0.0079

                     19                     20                     21
                     A1                     B2                     B2
 Frequencies --   1051.2688              1103.3611              1185.6105
 Red. masses --      2.2209                 1.5866                 1.1195
 Frc consts  --      1.4462                 1.1381                 0.9272
 IR Inten    --      4.1193                 5.0632                 0.0342

                     22                     23                     24
                     A1                     A1                     B2
 Frequencies --   1202.7571              1224.5209              1312.7014
 Red. masses --      1.1702                 3.5567                 4.5442
 Frc consts  --      0.9974                 3.1422                 4.6136
 IR Inten    --      0.0127                 1.2308                 0.4489

                     25                     26                     27
                     B2                     B2                     A1
 Frequencies --   1358.4559              1478.6760              1526.7280
 Red. masses --      1.5074                 2.1590                 2.1718
 Frc consts  --      1.6390                 2.7813                 2.9826
 IR Inten    --      0.2552                 4.3467                14.2402

                     28                     29                     30
                     B2                     A1                     A1
 Frequencies --   1611.0295              1641.1656              2205.1473
 Red. masses --      5.1053                 5.4340                 6.1450
 Frc consts  --      7.8069                 8.6232                17.6054
 IR Inten    --      1.3833                 1.9652                11.1178

                     31                     32                     33
                     A1                     B2                     A1
 Frequencies --   3172.0836              3180.8455              3191.0014
 Red. masses --      1.0854                 1.0883                 1.0919
 Frc consts  --      6.4350                 6.4877                 6.5508
 IR Inten    --      0.2856                 4.3286                13.5730

                     34                     35                     36
                     B2                     A1                     A1
 Frequencies --   3198.6575              3202.5964              3473.4444
 Red. masses --      1.0939                 1.0972                 1.1568
 Frc consts  --      6.5943                 6.6305                 8.2231
 IR Inten    --     15.4257                 4.1247                93.4500

 - Thermochemistry -
 -------------------
 Temperature   298.150 Kelvin.  Pressure   1.00000 Atm.
 Atom     1 has atomic number  6 and mass  12.00000

 Molecular mass:   102.04695 amu.
 Principal axes and moments of inertia in atomic units:
                           1         2         3
     Eigenvalues --   315.020121173.560051488.58017
           X            0.00000  -0.00000   1.00000
           Y            0.00000   1.00000   0.00000
           Z            1.00000  -0.00000  -0.00000
 This molecule is an asymmetric top.
 Rotational symmetry number  2.
 Rotational temperatures (Kelvin)      0.27495     0.07380     0.05819
 Rotational constants (GHZ):           5.72897     1.53783     1.21239
 Zero-point vibrational energy     287344.6 (Joules/Mol)
                                   68.67700 (Kcal/Mol)
 Warning -- explicit consideration of   7 degrees of freedom as
           vibrations may cause significant error
 Vibrational temperatures:    200.72   230.47   528.96   592.67   682.46
          (Kelvin)            776.65   794.90   918.80   926.75   991.39
                             1019.05  1119.33  1121.66  1238.99  1358.36
                             1435.43  1459.38  1466.82  1512.54  1587.49
                             1705.83  1730.50  1761.81  1888.68  1954.52
                             2127.48  2196.62  2317.91  2361.27  3172.72
                             4563.92  4576.53  4591.14  4602.15  4607.82
                             4997.51

 Zero-point correction=                           0.109444 (Hartree/Particle)
 Thermal correction to Energy=                    0.115859
 Thermal correction to Enthalpy=                  0.116803
 Thermal correction to Gibbs Free Energy=         0.079683
 Sum of electronic and zero-point Energies=           -308.405152
 Sum of electronic and thermal Energies=              -308.398736
 Sum of electronic and thermal Enthalpies=            -308.397792
 Sum of electronic and thermal Free Energies=         -308.434913

                     E (Thermal)             CV                S
                      KCal/Mol        Cal/Mol-Kelvin    Cal/Mol-Kelvin
 Total                   72.703             25.099             78.127
 Electronic               0.000              0.000              0.000
 Translational            0.889              2.981             39.778
 Rotational               0.889              2.981             26.423
 Vibrational             70.925             19.137             11.926
 Vibration     1          0.615              1.914              2.811
 Vibration     2          0.622              1.891              2.548
 Vibration     3          0.740              1.539              1.090
 Vibration     4          0.776              1.444              0.920
 Vibration     5          0.831              1.307              0.726
 Vibration     6          0.895              1.162              0.566
 Vibration     7          0.908              1.134              0.539

 Optimization completed.
    -- Stationary point found.
 Normal termination of Gaussian 16 at Fri Sep 29 00:39:54 2023.
 Gaussian 16:  ES64L-G16RevB.01 20-Dec-2017

 ---------------------------------
 # rohf/gen geom=check guess=check
 ---------------------------------

 ---------------------------------
 phenylacetylene, ROHF/cc-pVTZ-F12
 ---------------------------------
 Structure from the checkpoint file:  "phcch.chk"
 Charge =  0 Multiplicity = 1

                         Standard orientation:
 ---------------------------------------------------------------------
 Center     Atomic      Atomic             Coordinates (Angstroms)
 Number     Number       Type             X           Y           Z
 ---------------------------------------------------------------------
      1          6           0        0.000000    0.000000    0.591886
      2          6           0        0.000000    0.000000    2.017866
      3          6           0        0.000000    1.207487   -0.119535
      4          6           0       -0.000000   -1.207487   -0.119535
      5          6           0        0.000000    1.203129   -1.506303
      6          6           0       -0.000000   -1.203129   -1.506303
      7          6           0        0.000000   -0.000000   -2.203957
      8          6           0        0.000000    0.000000    3.219650
      9          1           0        0.000000    0.000000    4.280705
     10          1           0        0.000000    2.140887    0.425179
     11          1           0       -0.000000   -2.140887    0.425179
     12          1           0        0.000000    2.141409   -2.044136
     13          1           0       -0.000000   -2.141409   -2.044136
     14          1           0        0.000000   -0.000000   -3.285398
 ---------------------------------------------------------------------

 SCF Done:  E(ROHF) =  -306.497322991     A.U. after   13 cycles

 The electronic state is 1-A1.
 Alpha  occ. eigenvalues --  -11.26450 -11.24590 -11.24585 -11.24398 -11.24129
 Alpha  occ. eigenvalues --  -11.24100 -11.23789 -11.22783  -1.16967  -1.06806
 Alpha  occ. eigenvalues --   -1.02694  -0.99847  -0.85614  -0.83782  -0.74883
 Alpha  occ. eigenvalues --   -0.70551  -0.66696  -0.63973  -0.61147  -0.59780
 Alpha  occ. eigenvalues --   -0.52737  -0.52017  -0.50726  -0.43133  -0.39895
 Alpha  occ. eigenvalues --   -0.34777  -0.32184
 Alpha virt. eigenvalues --    0.04511   0.04619   0.05153   0.06092   0.06874
 Alpha virt. eigenvalues --    0.06883   0.08311   0.08327   0.09312   0.09796
 Alpha virt. eigenvalues --    0.09819   0.10251   0.10562   0.10979   0.12012

 Mulliken charges and spin densities:
               1          2
     1  C    0.313092   0.000000
     2  C    0.148261   0.000000
     3  C   -0.198102   0.000000
     4  C   -0.198102   0.000000
     5  C   -0.176324   0.000000
     6  C   -0.176324   0.000000
     7  C   -0.157247   0.000000
     8  C   -0.538070   0.000000
     9  H    0.246005   0.000000
    10  H    0.152003   0.000000
    11  H    0.152003   0.000000
    12  H    0.145103   0.000000
    13  H    0.145103   0.000000
    14  H    0.142598   0.000000
 Sum of Mulliken charges =  -0.00000   0.00000

 Dipole moment (field-independent basis, Debye):
    X=             -0.0000    Y=              0.0000    Z=             -0.7699  Tot=              0.7699
 Quadrupole moment (field-independent basis, Debye-Ang):
   XX=            -52.2342   YY=            -42.8266   ZZ=            -38.6630
   XY=              0.0000   XZ=              0.0000   YZ=             -0.0000

 Normal termination of Gaussian 16 at Fri Sep 29 00:47:24 2023.
