 Gaussian 16, Revision B.01,

 --------------------------------------------
 # b3lyp/gen opt=cart freq CPHF(Grid=OneStep)
 --------------------------------------------

 --------------------------------
 diphenylacetylene, B3LYP/pcseg-2
 --------------------------------
 Symbolic Z-matrix:
 Charge =  0 Multiplicity = 1

 SCF Done:  E(RB3LYP) =  -539.663915061     A.U. after   12 cycles
 Optimization completed.
    -- Stationary point found.
 Normal termination of Gaussian 16 at Tue Oct  3 14:44:06 2023.

 ------------------------------------------------------------------
 #N Geom=AllCheck Guess=TCheck SCRF=Check GenChk RB3LYP/ChkBas Freq
 ------------------------------------------------------------------

 Structure from the checkpoint file:  "PhCCPh.chk"
 --------------------------------
 diphenylacetylene, B3LYP/pcseg-2
 --------------------------------
 Charge =  0 Multiplicity = 1

 SCF Done:  E(RB3LYP) =  -539.663915061     A.U. after    1 cycles

  Exact polarizability:  81.566   0.000 155.233  -0.000   0.000 322.848
 Approx polarizability: 130.140  -0.000 268.740  -0.000  -0.000 463.909

                      1                      2                      3
                     AU                     B2U                    B3U
 Frequencies --     20.4100                46.4622                49.7751
 Red. masses --      3.6411                 4.7611                 5.4984
 Frc consts  --      0.0009                 0.0061                 0.0080
 IR Inten    --      0.0000                 0.5325                 1.1789

                      4                      5                      6
                     B2G                    B3G                    AG
 Frequencies --    139.9327               156.8304               261.0110
 Red. masses --      4.8240                 4.9328                 6.4282
 Frc consts  --      0.0557                 0.0715                 0.2580
 IR Inten    --      0.0000                 0.0000                 0.0000

                      7                      8                      9
                     B3U                    B2G                    AU
 Frequencies --    284.5997               408.2119               412.3346
 Red. masses --      5.1424                 4.6834                 2.8873
 Frc consts  --      0.2454                 0.4598                 0.2892
 IR Inten    --      0.1638                 0.0000                 0.0000

                     10                     11                     12
                     B1G                    B2U                    B3U
 Frequencies --    413.5409               478.7405               527.6110
 Red. masses --      2.8914                 6.7626                 3.2252
 Frc consts  --      0.2913                 0.9132                 0.5290
 IR Inten    --      0.0000                 1.5391                15.7916

                     13                     14                     15
                     B1U                    B2G                    B3G
 Frequencies --    550.5616               569.5212               578.9858
 Red. masses --      7.8212                 4.0332                 8.0318
 Frc consts  --      1.3968                 0.7708                 1.5863
 IR Inten    --     16.1472                 0.0000                 0.0000

                     16                     17                     18
                     B2U                    B3G                    B2G
 Frequencies --    637.2939               643.2622               706.7536
 Red. masses --      6.5041                 6.8327                 1.8732
 Frc consts  --      1.5564                 1.6658                 0.5513
 IR Inten    --      0.0011                 0.0000                 0.0000

                     19                     20                     21
                     B3U                    AG                     B2G
 Frequencies --    707.5839               717.3261               777.1030
 Red. masses --      1.8229                 6.1405                 1.8107
 Frc consts  --      0.5377                 1.8616                 0.6442
 IR Inten    --     72.5577                 0.0000                 0.0000

                     22                     23                     24
                     B3U                    AU                     B1G
 Frequencies --    778.7463               858.2840               858.7653
 Red. masses --      1.8090                 1.2493                 1.2477
 Frc consts  --      0.6464                 0.5422                 0.5421
 IR Inten    --     85.1185                 0.0000                 0.0000

                     25                     26                     27
                     B1U                    B2G                    B3U
 Frequencies --    859.0877               938.8088               940.4733
 Red. masses --      5.8193                 1.4218                 1.4286
 Frc consts  --      2.5304                 0.7383                 0.7445
 IR Inten    --      1.1562                 0.0000                 6.9626

                     28                     29                     30
                     AU                     B1G                    B2G
 Frequencies --    995.6313               995.9650              1011.9127
 Red. masses --      1.3705                 1.3699                 1.2953
 Frc consts  --      0.8004                 0.8006                 0.7815
 IR Inten    --      0.0000                 0.0000                 0.0000

                     31                     32                     33
                     B3U                    AG                     B1U
 Frequencies --   1012.3490              1017.1677              1018.1138
 Red. masses --      1.2973                 6.2412                 6.2912
 Frc consts  --      0.7833                 3.8045                 3.8422
 IR Inten    --      0.0981                 0.0000                 0.0668

                     34                     35                     36
                     AG                     B1U                    B3G
 Frequencies --   1049.2062              1050.9555              1102.1382
 Red. masses --      2.3379                 2.1047                 1.5958
 Frc consts  --      1.5163                 1.3697                 1.1421
 IR Inten    --      0.0000                 8.1583                 0.0000

                     37                     38                     39
                     B2U                    AG                     B2U
 Frequencies --   1103.1415              1161.9343              1184.6638
 Red. masses --      1.5887                 3.4340                 1.1198
 Frc consts  --      1.1391                 2.7316                 0.9260
 IR Inten    --     10.8032                 0.0000                 0.0111

                     40                     41                     42
                     B3G                    B1U                    AG
 Frequencies --   1184.6837              1203.1769              1204.7843
 Red. masses --      1.1195                 1.1342                 1.1810
 Frc consts  --      0.9257                 0.9674                 1.0100
 IR Inten    --      0.0000                 0.0472                 0.0000

                     43                     44                     45
                     B3G                    B2U                    B1U
 Frequencies --   1307.8261              1310.4279              1340.5270
 Red. masses --      4.3514                 4.6177                 3.8412
 Frc consts  --      4.3851                 4.6720                 4.0670
 IR Inten    --      0.0000                 0.1450                 5.4866

                     46                     47                     48
                     B3G                    B2U                    B3G
 Frequencies --   1357.2022              1358.1436              1476.2341
 Red. masses --      1.5367                 1.5008                 2.1559
 Frc consts  --      1.6677                 1.6311                 2.7682
 IR Inten    --      0.0000                 0.6336                 0.0000

                     49                     50                     51
                     B2U                    AG                     B1U
 Frequencies --   1478.1713              1520.0944              1537.1585
 Red. masses --      2.1712                 2.0835                 2.4714
 Frc consts  --      2.7951                 2.8365                 3.4406
 IR Inten    --      8.1397                 0.0000                45.9445

                     52                     53                     54
                     B3G                    B2U                    AG
 Frequencies --   1605.6626              1607.0055              1634.2232
 Red. masses --      4.9654                 5.0243                 5.3160
 Frc consts  --      7.5425                 7.6447                 8.3648
 IR Inten    --      0.0000                 3.5322                 0.0000

                     55                     56                     57
                     B1U                    AG                     B1U
 Frequencies --   1642.9497              2297.6869              3170.0792
 Red. masses --      5.5389                11.9955                 1.0853
 Frc consts  --      8.8089                37.3121                 6.4262
 IR Inten    --     30.6572                 0.0000                 4.2285

                     58                     59                     60
                     AG                     B3G                    B2U
 Frequencies --   3170.1432              3178.1895              3178.2328
 Red. masses --      1.0853                 1.0882                 1.0882
 Frc consts  --      6.4265                 6.4762                 6.4766
 IR Inten    --      0.0000                 0.0000                 8.9918

                     61                     62                     63
                     B1U                    AG                     B3G
 Frequencies --   3189.3531              3189.4340              3196.2882
 Red. masses --      1.0917                 1.0917                 1.0938
 Frc consts  --      6.5427                 6.5430                 6.5837
 IR Inten    --     29.4346                 0.0000                 0.0000

                     64                     65                     66
                     B2U                    B1U                    AG
 Frequencies --   3196.4635              3200.5682              3200.7351
 Red. masses --      1.0938                 1.0972                 1.0972
 Frc consts  --      6.5845                 6.6221                 6.6228
 IR Inten    --     33.2414                16.5350                 0.0000

 - Thermochemistry -
 -------------------
 Temperature   298.150 Kelvin.  Pressure   1.00000 Atm.
 Atom     1 has atomic number  6 and mass  12.00000

 Molecular mass:   178.07825 amu.
 Principal axes and moments of inertia in atomic units:
                           1         2         3
     Eigenvalues --   630.293057221.525737851.81878
           X           -0.00000  -0.00000   1.00000
           Y           -0.00000   1.00000   0.00000
           Z            1.00000   0.00000   0.00000
 This molecule is an asymmetric top.
 Rotational symmetry number  4.
 Warning -- assumption of classical behavior for rotation
           may cause significant error
 Rotational temperatures (Kelvin)      0.13742     0.01199     0.01103
 Rotational constants (GHZ):           2.86334     0.24991     0.22985
 Zero-point vibrational energy     502196.2 (Joules/Mol)
                                  120.02776 (Kcal/Mol)
 Warning -- explicit consideration of  15 degrees of freedom as
           vibrations may cause significant error
 Vibrational temperatures:     29.37    66.85    71.62   201.33   225.64
          (Kelvin)            375.54   409.48   587.33   593.26   594.99
                              688.80   759.11   792.14   819.41   833.03
                              916.92   925.51  1016.86  1018.06  1032.07
                             1118.08  1120.44  1234.88  1235.57  1236.04
                             1350.74  1353.13  1432.49  1432.97  1455.92
                             1456.54  1463.48  1464.84  1509.57  1512.09
                             1585.73  1587.17  1671.76  1704.47  1704.50
                             1731.10  1733.42  1881.67  1885.41  1928.72
                             1952.71  1954.07  2123.97  2126.76  2187.08
                             2211.63  2310.19  2312.12  2351.28  2363.84
                             3305.86  4561.04  4561.13  4572.71  4572.77
                             4588.77  4588.88  4598.75  4599.00  4604.90
                             4605.14

 Zero-point correction=                           0.191276 (Hartree/Particle)
 Thermal correction to Energy=                    0.202316
 Thermal correction to Enthalpy=                  0.203260
 Thermal correction to Gibbs Free Energy=         0.153257
 Sum of electronic and zero-point Energies=           -539.472639
 Sum of electronic and thermal Energies=              -539.461599
 Sum of electronic and thermal Enthalpies=            -539.460655
 Sum of electronic and thermal Free Energies=         -539.510658

                     E (Thermal)             CV                S
                      KCal/Mol        Cal/Mol-Kelvin    Cal/Mol-Kelvin
 Total                  126.955             43.203            105.240
 Electronic               0.000              0.000              0.000
 Translational            0.889              2.981             41.438
 Rotational               0.889              2.981             29.192
 Vibrational            125.178             37.242             34.610
 Vibration     1          0.593              1.986              6.594
 Vibration     2          0.595              1.979              4.963
 Vibration     3          0.595              1.978              4.826
 Vibration     4          0.615              1.913              2.805
 Vibration     5          0.620              1.895              2.588
 Vibration     6          0.669              1.744              1.655
 Vibration     7          0.683              1.702              1.506
 Vibration     8          0.773              1.452              0.933
 Vibration     9          0.776              1.443              0.918
 Vibration    10          0.777              1.441              0.914
 Vibration    11          0.835              1.297              0.713
 Vibration    12          0.883              1.189              0.593
 Vibration    13          0.906              1.138              0.543
 Vibration    14          0.926              1.097              0.505
 Vibration    15          0.936              1.077              0.487

 Optimization completed.
    -- Stationary point found.
 Normal termination of Gaussian 16 at Tue Oct  3 15:27:07 2023.
 Gaussian 16:  ES64L-G16RevB.01 20-Dec-2017

 ---------------------------------
 # rohf/gen geom=check guess=check
 ---------------------------------

 -----------------------------------
 diphenylacetylene, ROHF/cc-pVTZ-F12
 -----------------------------------
 Structure from the checkpoint file:  "PhCCPh.chk"
 Charge =  0 Multiplicity = 1

                         Standard orientation:
 ---------------------------------------------------------------------
 Center     Atomic      Atomic             Coordinates (Angstroms)
 Number     Number       Type             X           Y           Z
 ---------------------------------------------------------------------
      1          6           0        0.000000    0.000000    0.603877
      2          6           0        0.000000    0.000000   -0.603877
      3          6           0        0.000000   -0.000000   -2.025422
      4          6           0       -0.000000   -0.000000    2.025422
      5          6           0       -0.000000    1.207829   -2.741030
      6          6           0       -0.000000   -1.207829   -2.741030
      7          6           0       -0.000000    1.207829    2.741030
      8          6           0       -0.000000   -1.207829    2.741030
      9          6           0       -0.000000    1.203187   -4.127570
     10          6           0       -0.000000   -1.203187   -4.127570
     11          6           0       -0.000000    1.203187    4.127570
     12          6           0       -0.000000   -1.203187    4.127570
     13          6           0        0.000000   -0.000000   -4.826416
     14          6           0       -0.000000   -0.000000    4.826416
     15          1           0       -0.000000    2.141940   -2.197240
     16          1           0       -0.000000   -2.141940   -2.197240
     17          1           0       -0.000000    2.141940    2.197240
     18          1           0       -0.000000   -2.141940    2.197240
     19          1           0       -0.000000    2.141772   -4.665338
     20          1           0       -0.000000   -2.141772   -4.665338
     21          1           0       -0.000000    2.141772    4.665338
     22          1           0       -0.000000   -2.141772    4.665338
     23          1           0        0.000000   -0.000000   -5.907907
     24          1           0       -0.000000   -0.000000    5.907907
 ---------------------------------------------------------------------

 SCF Done:  E(ROHF) =  -536.139283159     A.U. after   12 cycles

 The electronic state is 1-AG.
 Alpha  occ. eigenvalues --  -11.26249 -11.26249 -11.24279 -11.24279 -11.24275
 Alpha  occ. eigenvalues --  -11.24275 -11.24099 -11.24099 -11.23903 -11.23903
 Alpha  occ. eigenvalues --  -11.23864 -11.23864 -11.23279 -11.22909  -1.16827
 Alpha  occ. eigenvalues --   -1.16420  -1.07571  -1.04257  -1.02408  -1.02389
 Alpha  occ. eigenvalues --   -0.98100  -0.86683  -0.83542  -0.83376  -0.83335
 Alpha  occ. eigenvalues --   -0.74321  -0.72145  -0.67648  -0.66343  -0.63946
 Alpha  occ. eigenvalues --   -0.63362  -0.61384  -0.60509  -0.59503  -0.59477
 Alpha  occ. eigenvalues --   -0.53244  -0.52047  -0.51625  -0.51522  -0.50601
 Alpha  occ. eigenvalues --   -0.50202  -0.43963  -0.38909  -0.36119  -0.34553
 Alpha  occ. eigenvalues --   -0.34527  -0.28976
 Alpha virt. eigenvalues --    0.04259   0.04394   0.04805   0.05267   0.05518
 Alpha virt. eigenvalues --    0.06399   0.06763   0.06975   0.07368   0.08096
 Alpha virt. eigenvalues --    0.08366   0.09062   0.09371   0.09374   0.09842

 Mulliken charges and spin densities:
               1          2
     1  C   -0.077935   0.000000
     2  C   -0.077935   0.000000
     3  C    0.316627   0.000000
     4  C    0.316627   0.000000
     5  C   -0.197249   0.000000
     6  C   -0.197249   0.000000
     7  C   -0.197249   0.000000
     8  C   -0.197249   0.000000
     9  C   -0.195834   0.000000
    10  C   -0.195834   0.000000
    11  C   -0.195834   0.000000
    12  C   -0.195834   0.000000
    13  C   -0.164765   0.000000
    14  C   -0.164765   0.000000
    15  H    0.142972   0.000000
    16  H    0.142972   0.000000
    17  H    0.142972   0.000000
    18  H    0.142972   0.000000
    19  H    0.142506   0.000000
    20  H    0.142506   0.000000
    21  H    0.142506   0.000000
    22  H    0.142506   0.000000
    23  H    0.141285   0.000000
    24  H    0.141285   0.000000
 Sum of Mulliken charges =  -0.00000   0.00000

 Dipole moment (field-independent basis, Debye):
    X=             -0.0000    Y=              0.0000    Z=             -0.0000  Tot=              0.0000
 Quadrupole moment (field-independent basis, Debye-Ang):
   XX=            -90.4692   YY=            -72.0771   ZZ=            -64.2960
   XY=              0.0000   XZ=             -0.0000   YZ=             -0.0000

 Normal termination of Gaussian 16 at Tue Oct  3 15:45:07 2023.
