 Gaussian 16, Revision B.01,
 Gaussian 16:  ES64L-G16RevB.01 20-Dec-2017

 --------------------------
 # opt(cart) freq b3lyp/gen
 --------------------------

 --------------------------------
 diphenylacetylene, B3LYP/pcseg-2
 --------------------------------
 Symbolic Z-matrix:
 Charge =  0 Multiplicity = 1

 SCF Done:  E(RB3LYP) =  -539.663249109     A.U. after   12 cycles
 SCF Done:  E(RB3LYP) =  -539.663912301     A.U. after    9 cycles
 SCF Done:  E(RB3LYP) =  -539.663915061     A.U. after    7 cycles
 Optimization completed.
    -- Stationary point found.
 Normal termination of Gaussian 16 at Tue Jun 21 10:31:48 2022.

 ------------------------------------------------------------------
 #N Geom=AllCheck Guess=TCheck SCRF=Check GenChk RB3LYP/ChkBas Freq
 ------------------------------------------------------------------

 Structure from the checkpoint file:  "/wrk/irikura/Gau-27443.chk"
 --------------------------------
 diphenylacetylene, B3LYP/pcseg-2
 --------------------------------
 Charge =  0 Multiplicity = 1

                         Standard orientation:
 ---------------------------------------------------------------------
 Center     Atomic      Atomic             Coordinates (Angstroms)
 Number     Number       Type             X           Y           Z
 ---------------------------------------------------------------------
      1          6           0       -0.000000    0.000000    0.603877
      2          6           0        0.000000    0.000000   -0.603877
      3          6           0        0.000000    0.000000   -2.025422
      4          6           0       -0.000000   -0.000000    2.025422
      5          6           0        0.000000    1.207829   -2.741030
      6          6           0       -0.000000   -1.207829   -2.741030
      7          6           0       -0.000000    1.207829    2.741030
      8          6           0       -0.000000   -1.207829    2.741030
      9          6           0        0.000000    1.203187   -4.127570
     10          6           0       -0.000000   -1.203187   -4.127570
     11          6           0       -0.000000    1.203187    4.127570
     12          6           0       -0.000000   -1.203187    4.127570
     13          6           0        0.000000    0.000000   -4.826416
     14          6           0       -0.000000   -0.000000    4.826416
     15          1           0        0.000000    2.141940   -2.197240
     16          1           0       -0.000000   -2.141940   -2.197240
     17          1           0       -0.000000    2.141940    2.197240
     18          1           0       -0.000000   -2.141940    2.197240
     19          1           0        0.000000    2.141772   -4.665338
     20          1           0       -0.000000   -2.141772   -4.665338
     21          1           0       -0.000000    2.141772    4.665338
     22          1           0       -0.000000   -2.141772    4.665338
     23          1           0        0.000000    0.000000   -5.907907
     24          1           0       -0.000000   -0.000000    5.907907
 ---------------------------------------------------------------------

 SCF Done:  E(RB3LYP) =  -539.663915061     A.U. after    1 cycles

 The electronic state is 1-AG.
 Alpha  occ. eigenvalues --  -10.20510 -10.20510 -10.18444 -10.18444 -10.18444
 Alpha  occ. eigenvalues --  -10.18444 -10.18289 -10.18289 -10.18240 -10.18240
 Alpha  occ. eigenvalues --  -10.18204 -10.18204 -10.17563 -10.17320  -0.87298
 Alpha  occ. eigenvalues --   -0.87023  -0.79752  -0.77430  -0.75782  -0.75767
 Alpha  occ. eigenvalues --   -0.72222  -0.64212  -0.61722  -0.61589  -0.61505
 Alpha  occ. eigenvalues --   -0.55431  -0.53910  -0.49398  -0.48232  -0.46972
 Alpha  occ. eigenvalues --   -0.46519  -0.44681  -0.44092  -0.43291  -0.43264
 Alpha  occ. eigenvalues --   -0.39665  -0.38539  -0.37044  -0.36631  -0.36014
 Alpha  occ. eigenvalues --   -0.35667  -0.32785  -0.28117  -0.27863  -0.26750
 Alpha  occ. eigenvalues --   -0.26736  -0.22284
 Alpha virt. eigenvalues --   -0.06075  -0.02207  -0.02069  -0.00800   0.01083
 Alpha virt. eigenvalues --    0.01901   0.03353   0.03735   0.03880   0.04865
 Alpha virt. eigenvalues --    0.05959   0.06436   0.07351   0.08810   0.10053

 Mulliken charges:
               1
     1  C   -0.130732
     2  C   -0.130732
     3  C    0.339905
     4  C    0.339905
     5  C   -0.135589
     6  C   -0.135589
     7  C   -0.135589
     8  C   -0.135589
     9  C   -0.018380
    10  C   -0.018380
    11  C   -0.018380
    12  C   -0.018380
    13  C   -0.004073
    14  C   -0.004073
    15  H    0.021747
    16  H    0.021747
    17  H    0.021747
    18  H    0.021747
    19  H    0.017899
    20  H    0.017899
    21  H    0.017899
    22  H    0.017899
    23  H    0.023546
    24  H    0.023546
 Sum of Mulliken charges =  -0.00000

 Dipole moment (field-independent basis, Debye):
    X=             -0.0000    Y=              0.0000    Z=              0.0000  Tot=              0.0000
 Quadrupole moment (field-independent basis, Debye-Ang):
   XX=            -88.5512   YY=            -72.4709   ZZ=            -65.4714
   XY=              0.0000   XZ=             -0.0000   YZ=              0.0000

  Exact polarizability:  81.563   0.000 155.231  -0.000   0.000 322.847
 Approx polarizability: 130.140  -0.000 268.740  -0.000  -0.000 463.908

                      1                      2                      3
                     AU                     B2U                    B3U
 Frequencies --     20.3524                46.4610                49.7660
 Red. masses --      3.6411                 4.7611                 5.4983
 Frc consts  --      0.0009                 0.0061                 0.0080
 IR Inten    --      0.0000                 0.5325                 1.1789

                      4                      5                      6
                     B2G                    B3G                    AG
 Frequencies --    139.9290               156.8290               261.0111
 Red. masses --      4.8240                 4.9328                 6.4282
 Frc consts  --      0.0557                 0.0715                 0.2580
 IR Inten    --      0.0000                 0.0000                 0.0000

                      7                      8                      9
                     B3U                    B2G                    AU
 Frequencies --    284.5999               408.2100               412.3348
 Red. masses --      5.1424                 4.6834                 2.8873
 Frc consts  --      0.2454                 0.4598                 0.2892
 IR Inten    --      0.1641                 0.0000                 0.0000

                     10                     11                     12
                     B1G                    B2U                    B3U
 Frequencies --    413.5414               478.7415               527.6103
 Red. masses --      2.8914                 6.7625                 3.2252
 Frc consts  --      0.2913                 0.9132                 0.5290
 IR Inten    --      0.0000                 1.5395                15.7939

                     13                     14                     15
                     B1U                    B2G                    B3G
 Frequencies --    550.5608               569.5201               578.9854
 Red. masses --      7.8211                 4.0331                 8.0317
 Frc consts  --      1.3968                 0.7707                 1.5863
 IR Inten    --     16.1483                 0.0000                 0.0000

                     16                     17                     18
                     B2U                    B3G                    B2G
 Frequencies --    637.2955               643.2641               706.7519
 Red. masses --      6.5041                 6.8327                 1.8731
 Frc consts  --      1.5564                 1.6658                 0.5513
 IR Inten    --      0.0011                 0.0000                 0.0000

                     19                     20                     21
                     B3U                    AG                     B2G
 Frequencies --    707.5823               717.3227               777.0985
 Red. masses --      1.8229                 6.1405                 1.8107
 Frc consts  --      0.5377                 1.8616                 0.6443
 IR Inten    --     72.5619                 0.0000                 0.0000

                     22                     23                     24
                     B3U                    AU                     B1G
 Frequencies --    778.7417               858.2743               858.7557
 Red. masses --      1.8090                 1.2493                 1.2477
 Frc consts  --      0.6464                 0.5422                 0.5421
 IR Inten    --     85.1102                 0.0000                 0.0000

                     25                     26                     27
                     B1U                    B2G                    B3U
 Frequencies --    859.0857               938.8066               940.4714
 Red. masses --      5.8193                 1.4218                 1.4286
 Frc consts  --      2.5304                 0.7383                 0.7445
 IR Inten    --      1.1541                 0.0000                 6.9645

                     28                     29                     30
                     AU                     B1G                    B2G
 Frequencies --    995.6308               995.9647              1011.9110
 Red. masses --      1.3705                 1.3699                 1.2954
 Frc consts  --      0.8004                 0.8006                 0.7815
 IR Inten    --      0.0000                 0.0000                 0.0000

                     31                     32                     33
                     B3U                    AG                     B1U
 Frequencies --   1012.3470              1017.1657              1018.1125
 Red. masses --      1.2973                 6.2412                 6.2912
 Frc consts  --      0.7833                 3.8045                 3.8422
 IR Inten    --      0.0981                 0.0000                 0.0669

                     34                     35                     36
                     AG                     B1U                    B3G
 Frequencies --   1049.2016              1050.9502              1102.1355
 Red. masses --      2.3378                 2.1047                 1.5958
 Frc consts  --      1.5163                 1.3697                 1.1421
 IR Inten    --      0.0000                 8.1547                 0.0000

                     37                     38                     39
                     B2U                    AG                     B2U
 Frequencies --   1103.1387              1161.9263              1184.6602
 Red. masses --      1.5887                 3.4341                 1.1198
 Frc consts  --      1.1390                 2.7316                 0.9259
 IR Inten    --     10.8013                 0.0000                 0.0111

                     40                     41                     42
                     B3G                    B1U                    AG
 Frequencies --   1184.6800              1203.1738              1204.7825
 Red. masses --      1.1195                 1.1342                 1.1810
 Frc consts  --      0.9257                 0.9674                 1.0100
 IR Inten    --      0.0000                 0.0472                 0.0000

                     43                     44                     45
                     B3G                    B2U                    B1U
 Frequencies --   1307.8251              1310.4270              1340.5208
 Red. masses --      4.3512                 4.6176                 3.8415
 Frc consts  --      4.3849                 4.6719                 4.0672
 IR Inten    --      0.0000                 0.1447                 5.4847

                     46                     47                     48
                     B3G                    B2U                    B3G
 Frequencies --   1357.1977              1358.1392              1476.2300
 Red. masses --      1.5367                 1.5009                 2.1559
 Frc consts  --      1.6677                 1.6311                 2.7681
 IR Inten    --      0.0000                 0.6338                 0.0000

                     49                     50                     51
                     B2U                    AG                     B1U
 Frequencies --   1478.1674              1520.0844              1537.1465
 Red. masses --      2.1711                 2.0835                 2.4714
 Frc consts  --      2.7950                 2.8364                 3.4405
 IR Inten    --      8.1432                 0.0000                45.9713

                     52                     53                     54
                     B3G                    B2U                    AG
 Frequencies --   1605.6616              1607.0045              1634.2262
 Red. masses --      4.9655                 5.0243                 5.3160
 Frc consts  --      7.5425                 7.6447                 8.3649
 IR Inten    --      0.0000                 3.5323                 0.0000

                     55                     56                     57
                     B1U                    AG                     B1U
 Frequencies --   1642.9516              2297.6926              3170.0809
 Red. masses --      5.5390                11.9955                 1.0853
 Frc consts  --      8.8090                37.3123                 6.4262
 IR Inten    --     30.6650                 0.0000                 4.2256

                     58                     59                     60
                     AG                     B3G                    B2U
 Frequencies --   3170.1448              3178.1935              3178.2366
 Red. masses --      1.0853                 1.0882                 1.0882
 Frc consts  --      6.4265                 6.4763                 6.4766
 IR Inten    --      0.0000                 0.0000                 8.9871

                     61                     62                     63
                     B1U                    AG                     B3G
 Frequencies --   3189.3507              3189.4311              3196.2875
 Red. masses --      1.0917                 1.0917                 1.0938
 Frc consts  --      6.5427                 6.5430                 6.5837
 IR Inten    --     29.4462                 0.0000                 0.0000

                     64                     65                     66
                     B2U                    B1U                    AG
 Frequencies --   3196.4618              3200.5693              3200.7356
 Red. masses --      1.0938                 1.0972                 1.0972
 Frc consts  --      6.5845                 6.6221                 6.6228
 IR Inten    --     33.2444                16.5393                 0.0000

 - Thermochemistry -
 -------------------
 Temperature   298.150 Kelvin.  Pressure   1.00000 Atm.
 Atom     1 has atomic number  6 and mass  12.00000

 Molecular mass:   178.07825 amu.
 Principal axes and moments of inertia in atomic units:
                           1         2         3
     Eigenvalues --   630.293177221.525037851.81820
           X           -0.00000   0.00000   1.00000
           Y           -0.00000   1.00000  -0.00000
           Z            1.00000   0.00000   0.00000
 This molecule is an asymmetric top.
 Rotational symmetry number  4.
 Warning -- assumption of classical behavior for rotation
           may cause significant error
 Rotational temperatures (Kelvin)      0.13742     0.01199     0.01103
 Rotational constants (GHZ):           2.86334     0.24991     0.22985
 Zero-point vibrational energy     502195.0 (Joules/Mol)
                                  120.02749 (Kcal/Mol)
 Warning -- explicit consideration of  15 degrees of freedom as
           vibrations may cause significant error
 Vibrational temperatures:     29.28    66.85    71.60   201.33   225.64
          (Kelvin)            375.54   409.48   587.32   593.26   594.99
                              688.80   759.11   792.13   819.41   833.03
                              916.93   925.51  1016.86  1018.05  1032.07
                             1118.07  1120.44  1234.87  1235.56  1236.03
                             1350.73  1353.13  1432.49  1432.97  1455.91
                             1456.54  1463.47  1464.84  1509.57  1512.08
                             1585.73  1587.17  1671.75  1704.46  1704.49
                             1731.10  1733.41  1881.67  1885.41  1928.71
                             1952.70  1954.06  2123.97  2126.75  2187.06
                             2211.61  2310.19  2312.12  2351.29  2363.84
                             3305.87  4561.04  4561.13  4572.71  4572.77
                             4588.76  4588.88  4598.74  4599.00  4604.91
                             4605.14

 Zero-point correction=                           0.191276 (Hartree/Particle)
 Thermal correction to Energy=                    0.202315
 Thermal correction to Enthalpy=                  0.203260
 Thermal correction to Gibbs Free Energy=         0.153254
 Sum of electronic and zero-point Energies=           -539.472639
 Sum of electronic and thermal Energies=              -539.461600
 Sum of electronic and thermal Enthalpies=            -539.460655
 Sum of electronic and thermal Free Energies=         -539.510661

                     E (Thermal)             CV                S
                      KCal/Mol        Cal/Mol-Kelvin    Cal/Mol-Kelvin
 Total                  126.955             43.204            105.246
 Electronic               0.000              0.000              0.000
 Translational            0.889              2.981             41.438
 Rotational               0.889              2.981             29.192
 Vibrational            125.177             37.242             34.616
 Vibration     1          0.593              1.986              6.600
 Vibration     2          0.595              1.979              4.963
 Vibration     3          0.595              1.978              4.827
 Vibration     4          0.615              1.913              2.805
 Vibration     5          0.620              1.895              2.588
 Vibration     6          0.669              1.744              1.655
 Vibration     7          0.683              1.702              1.506
 Vibration     8          0.773              1.452              0.933
 Vibration     9          0.776              1.443              0.918
 Vibration    10          0.777              1.441              0.914
 Vibration    11          0.835              1.297              0.713
 Vibration    12          0.883              1.189              0.593
 Vibration    13          0.906              1.138              0.543
 Vibration    14          0.926              1.097              0.505
 Vibration    15          0.936              1.077              0.487

 Optimization completed.
    -- Stationary point found.
 Normal termination of Gaussian 16 at Tue Jun 21 10:42:17 2022.
