 Gaussian 16, Revision B.01,
 Gaussian 16:  ES64L-G16RevB.01 20-Dec-2017

 --------------------
 # b3lyp/gen opt freq
 --------------------

 ------------------------------
 phenylacetylene, B3LYP/pcseg-2
 ------------------------------
 Symbolic Z-matrix:
 Charge =  0 Multiplicity = 1

 SCF Done:  E(RB3LYP) =  -308.514484038     A.U. after   14 cycles
 SCF Done:  E(RB3LYP) =  -308.514595722     A.U. after    9 cycles
 Optimization completed.
    -- Stationary point found.
 Normal termination of Gaussian 16 at Thu Jun 16 14:18:17 2022.

 ------------------------------------------------------------------
 #N Geom=AllCheck Guess=TCheck SCRF=Check GenChk RB3LYP/ChkBas Freq
 ------------------------------------------------------------------

 Structure from the checkpoint file:  "/wrk/irikura/Gau-8252.chk"
 ------------------------------
 phenylacetylene, B3LYP/pcseg-2
 ------------------------------
 Charge =  0 Multiplicity = 1

                         Standard orientation:
 ---------------------------------------------------------------------
 Center     Atomic      Atomic             Coordinates (Angstroms)
 Number     Number       Type             X           Y           Z
 ---------------------------------------------------------------------
      1          6           0        0.000000   -0.000000    0.591886
      2          6           0        0.000000   -0.000000    2.017866
      3          6           0        0.000000    1.207487   -0.119535
      4          6           0       -0.000000   -1.207487   -0.119535
      5          6           0        0.000000    1.203129   -1.506303
      6          6           0       -0.000000   -1.203129   -1.506303
      7          6           0        0.000000    0.000000   -2.203957
      8          6           0        0.000000   -0.000000    3.219650
      9          1           0        0.000000   -0.000000    4.280705
     10          1           0        0.000000    2.140887    0.425179
     11          1           0       -0.000000   -2.140887    0.425179
     12          1           0        0.000000    2.141409   -2.044136
     13          1           0       -0.000000   -2.141409   -2.044136
     14          1           0        0.000000    0.000000   -3.285398
 ---------------------------------------------------------------------

 SCF Done:  E(RB3LYP) =  -308.514595722     A.U. after    1 cycles

 The electronic state is 1-A1.
 Alpha  occ. eigenvalues --  -10.20749 -10.18745 -10.18744 -10.18569 -10.18493
 Alpha  occ. eigenvalues --  -10.18469 -10.18026 -10.17185  -0.87498  -0.79232
 Alpha  occ. eigenvalues --   -0.76072  -0.73517  -0.63448  -0.61968  -0.55880
 Alpha  occ. eigenvalues --   -0.52399  -0.48649  -0.47061  -0.44615  -0.43560
 Alpha  occ. eigenvalues --   -0.39407  -0.37076  -0.36154  -0.32157  -0.28818
 Alpha  occ. eigenvalues --   -0.27010  -0.24603
 Alpha virt. eigenvalues --   -0.04615  -0.02408   0.01393   0.03022   0.03811
 Alpha virt. eigenvalues --    0.04034   0.05157   0.06440   0.07441   0.07664
 Alpha virt. eigenvalues --    0.11647   0.12454   0.13094   0.15884   0.16057

 Mulliken charges:
               1
     1  C    0.272761
     2  C   -0.035962
     3  C   -0.092331
     4  C   -0.092331
     5  C   -0.027731
     6  C   -0.027731
     7  C    0.010749
     8  C   -0.204013
     9  H    0.055190
    10  H    0.037901
    11  H    0.037901
    12  H    0.020076
    13  H    0.020076
    14  H    0.025445
 Sum of Mulliken charges =  -0.00000

 Dipole moment (field-independent basis, Debye):
    X=              0.0000    Y=             -0.0000    Z=             -0.7321  Tot=              0.7321
 Quadrupole moment (field-independent basis, Debye-Ang):
   XX=            -51.1595   YY=            -42.9077   ZZ=            -39.2542
   XY=              0.0000   XZ=             -0.0000   YZ=              0.0000

  Exact polarizability:  48.436  -0.000  86.716   0.000   0.000 141.450
 Approx polarizability:  73.860   0.000 143.130   0.000  -0.000 228.291

                      1                      2                      3
                     B1                     B2                     B1
 Frequencies --    139.5065               160.1853               367.6431
 Red. masses --      3.9787                 3.7909                 4.0490
 Frc consts  --      0.0456                 0.0573                 0.3224
 IR Inten    --      1.9410                 1.4396                 4.2572

                      4                      5                      6
                     A2                     A1                     B2
 Frequencies --    411.9280               474.3320               539.7999
 Red. masses --      2.8835                 7.0600                 5.7027
 Frc consts  --      0.2883                 0.9359                 0.9790
 IR Inten    --      0.0000                 0.2922                 5.1417

                      7                      8                      9
                     B1                     B2                     B1
 Frequencies --    552.4828               638.5960               644.1250
 Red. masses --      3.3915                 5.9244                 1.2851
 Frc consts  --      0.6099                 1.4235                 0.3141
 IR Inten    --      4.7821                 0.9008                50.8367

                     10                     11                     12
                     B2                     B1                     A1
 Frequencies --    689.0515               708.2714               777.9688
 Red. masses --      1.3005                 1.8451                 5.6974
 Frc consts  --      0.3638                 0.5453                 2.0317
 IR Inten    --     43.5187                34.1181                 2.6696

                     13                     14                     15
                     B1                     A2                     B1
 Frequencies --    779.5865               861.1317               944.1067
 Red. masses --      1.8016                 1.2475                 1.4207
 Frc consts  --      0.6451                 0.5450                 0.7461
 IR Inten    --     46.8991                 0.0000                 3.9475

                     16                     17                     18
                     A2                     B1                     A1
 Frequencies --    997.6745              1014.3155              1019.4923
 Red. masses --      1.3718                 1.2980                 6.2659
 Frc consts  --      0.8045                 0.7868                 3.8371
 IR Inten    --      0.0000                 0.0599                 0.0079

                     19                     20                     21
                     A1                     B2                     B2
 Frequencies --   1051.2645              1103.3584              1185.6074
 Red. masses --      2.2209                 1.5866                 1.1195
 Frc consts  --      1.4461                 1.1380                 0.9272
 IR Inten    --      4.1179                 5.0624                 0.0341

                     22                     23                     24
                     A1                     A1                     B2
 Frequencies --   1202.7536              1224.5173              1312.6998
 Red. masses --      1.1702                 3.5563                 4.5441
 Frc consts  --      0.9974                 3.1418                 4.6134
 IR Inten    --      0.0128                 1.2312                 0.4484

                     25                     26                     27
                     B2                     B2                     A1
 Frequencies --   1358.4515              1478.6717              1526.7185
 Red. masses --      1.5074                 2.1590                 2.1718
 Frc consts  --      1.6390                 2.7813                 2.9825
 IR Inten    --      0.2554                 4.3486                14.2497

                     28                     29                     30
                     B2                     A1                     A1
 Frequencies --   1611.0283              1641.1689              2205.1422
 Red. masses --      5.1053                 5.4340                 6.1450
 Frc consts  --      7.8069                 8.6234                17.6054
 IR Inten    --      1.3835                 1.9661                11.1251

                     31                     32                     33
                     A1                     B2                     A1
 Frequencies --   3172.0831              3180.8430              3191.0018
 Red. masses --      1.0854                 1.0883                 1.0919
 Frc consts  --      6.4350                 6.4877                 6.5508
 IR Inten    --      0.2866                 4.3307                13.5773

                     34                     35                     36
                     B2                     A1                     A1
 Frequencies --   3198.6558              3202.5960              3473.4433
 Red. masses --      1.0939                 1.0972                 1.1568
 Frc consts  --      6.5942                 6.6305                 8.2231
 IR Inten    --     15.4222                 4.1250                93.4580

 - Thermochemistry -
 -------------------
 Temperature   298.150 Kelvin.  Pressure   1.00000 Atm.
 Atom     1 has atomic number  6 and mass  12.00000

 Molecular mass:   102.04695 amu.
 Principal axes and moments of inertia in atomic units:
                           1         2         3
     Eigenvalues --   315.020171173.560041488.58022
           X            0.00000   0.00000   1.00000
           Y            0.00000   1.00000  -0.00000
           Z            1.00000  -0.00000  -0.00000
 This molecule is an asymmetric top.
 Rotational symmetry number  2.
 Rotational temperatures (Kelvin)      0.27495     0.07380     0.05819
 Rotational constants (GHZ):           5.72897     1.53783     1.21239
 Zero-point vibrational energy     287344.2 (Joules/Mol)
                                   68.67692 (Kcal/Mol)
 Warning -- explicit consideration of   7 degrees of freedom as
           vibrations may cause significant error
 Vibrational temperatures:    200.72   230.47   528.96   592.67   682.46
          (Kelvin)            776.65   794.90   918.80   926.75   991.39
                             1019.04  1119.32  1121.65  1238.98  1358.36
                             1435.43  1459.37  1466.82  1512.54  1587.49
                             1705.82  1730.49  1761.81  1888.68  1954.51
                             2127.48  2196.61  2317.91  2361.28  3172.71
                             4563.92  4576.52  4591.14  4602.15  4607.82
                             4997.51

 Zero-point correction=                           0.109444 (Hartree/Particle)
 Thermal correction to Energy=                    0.115859
 Thermal correction to Enthalpy=                  0.116803
 Thermal correction to Gibbs Free Energy=         0.079683
 Sum of electronic and zero-point Energies=           -308.405152
 Sum of electronic and thermal Energies=              -308.398737
 Sum of electronic and thermal Enthalpies=            -308.397792
 Sum of electronic and thermal Free Energies=         -308.434913

                     E (Thermal)             CV                S
                      KCal/Mol        Cal/Mol-Kelvin    Cal/Mol-Kelvin
 Total                   72.703             25.099             78.127
 Electronic               0.000              0.000              0.000
 Translational            0.889              2.981             39.778
 Rotational               0.889              2.981             26.423
 Vibrational             70.925             19.137             11.926
 Vibration     1          0.615              1.914              2.811
 Vibration     2          0.622              1.891              2.548
 Vibration     3          0.740              1.539              1.090
 Vibration     4          0.776              1.444              0.920
 Vibration     5          0.831              1.307              0.726
 Vibration     6          0.895              1.162              0.566
 Vibration     7          0.908              1.134              0.539

 Optimization completed.
    -- Stationary point found.
 Normal termination of Gaussian 16 at Thu Jun 16 14:22:20 2022.
