 Gaussian 16, Revision B.01,

 ---------------------------------------
 # b3lyp/gen opt freq CPHF(Grid=OneStep)
 ---------------------------------------

 -------------------------------
 benzoyl chloride, B3LYP/pcseg-2
 -------------------------------
 Symbolic Z-matrix:
 Charge =  0 Multiplicity = 1

 SCF Done:  E(RB3LYP) =  -805.359311475     A.U. after   15 cycles
 Optimization completed.
    -- Stationary point found.
 Normal termination of Gaussian 16 at Sat Sep 30 03:50:01 2023.

 ------------------------------------------------------------------
 #N Geom=AllCheck Guess=TCheck SCRF=Check GenChk RB3LYP/ChkBas Freq
 ------------------------------------------------------------------

 Structure from the checkpoint file:  "phcclo.chk"
 -------------------------------
 benzoyl chloride, B3LYP/pcseg-2
 -------------------------------
 Charge =  0 Multiplicity = 1

 SCF Done:  E(RB3LYP) =  -805.359311475     A.U. after    1 cycles

  Exact polarizability: 121.392  13.034 113.307   0.000   0.000  50.935
 Approx polarizability: 193.451   3.249 192.451  -0.000  -0.000  81.314

                      1                      2                      3
                     A"                     A"                     A'
 Frequencies --     40.2721               152.3190               190.9592
 Red. masses --      6.3203                 5.1556                 7.6781
 Frc consts  --      0.0060                 0.0705                 0.1650
 IR Inten    --      0.2452                 0.2746                 0.9139

                      4                      5                      6
                     A'                     A'                     A"
 Frequencies --    315.9511               412.2434               413.4468
 Red. masses --      8.4761                13.6744                 2.8574
 Frc consts  --      0.4985                 1.3692                 0.2878
 IR Inten    --     15.8101                12.5245                 0.0013

                      7                      8                      9
                     A"                     A'                     A'
 Frequencies --    434.5895               504.4990               632.6707
 Red. masses --      3.7791                 9.6802                 6.4403
 Frc consts  --      0.4205                 1.4516                 1.5188
 IR Inten    --      0.2103                 5.4227                 2.4962

                     10                     11                     12
                     A"                     A'                     A"
 Frequencies --    665.7102               682.4880               703.1421
 Red. masses --      4.8652                 7.5984                 1.7533
 Frc consts  --      1.2703                 2.0853                 0.5107
 IR Inten    --     21.9771               101.7900                48.6425

                     13                     14                     15
                     A"                     A"                     A'
 Frequencies --    798.4952               867.9320               879.2618
 Red. masses --      1.9685                 1.2479                 7.3702
 Frc consts  --      0.7395                 0.5539                 3.3571
 IR Inten    --     21.9265                 0.0635               242.2776

                     16                     17                     18
                     A"                     A"                     A'
 Frequencies --    972.1244              1013.5002              1021.7095
 Red. masses --      1.3999                 1.3791                 6.2366
 Frc consts  --      0.7794                 0.8346                 3.8358
 IR Inten    --      1.5206                 0.0763                 1.8910

                     19                     20                     21
                     A"                     A'                     A'
 Frequencies --   1030.5497              1050.7641              1111.5961
 Red. masses --      1.3263                 2.1773                 1.5506
 Frc consts  --      0.8299                 1.4164                 1.1289
 IR Inten    --      0.0003                 2.1271                 2.9764

                     22                     23                     24
                     A'                     A'                     A'
 Frequencies --   1188.3290              1193.3845              1217.8957
 Red. masses --      1.1391                 1.6463                 1.9836
 Frc consts  --      0.9477                 1.3814                 1.7335
 IR Inten    --      5.6975               138.4928                70.4907

                     25                     26                     27
                     A'                     A'                     A'
 Frequencies --   1336.8578              1355.6057              1483.9727
 Red. masses --      3.2984                 1.7460                 2.1680
 Frc consts  --      3.4731                 1.8904                 2.8130
 IR Inten    --      1.9345                 6.8359                17.8826

                     28                     29                     30
                     A'                     A'                     A'
 Frequencies --   1522.8620              1619.5075              1636.2342
 Red. masses --      2.1086                 5.3174                 5.4428
 Frc consts  --      2.8812                 8.2171                 8.5855
 IR Inten    --      0.3333                 7.9019                21.8458

                     31                     32                     33
                     A'                     A'                     A'
 Frequencies --   1829.0030              3176.2593              3188.4229
 Red. masses --     13.1592                 1.0865                 1.0899
 Frc consts  --     25.9364                 6.4580                 6.5279
 IR Inten    --    332.4504                 0.4330                 7.9076

                     34                     35                     36
                     A'                     A'                     A'
 Frequencies --   3197.3253              3210.9682              3224.2929
 Red. masses --      1.0945                 1.0938                 1.0922
 Frc consts  --      6.5925                 6.6444                 6.6901
 IR Inten    --      9.4122                 4.3375                 0.9104

 - Thermochemistry -
 -------------------
 Temperature   298.150 Kelvin.  Pressure   1.00000 Atm.
 Atom     1 has atomic number  6 and mass  12.00000

 Molecular mass:   140.00289 amu.
 Principal axes and moments of inertia in atomic units:
                           1         2         3
     Eigenvalues --   574.887841944.179022519.06686
           X            0.83284  -0.55351   0.00000
           Y            0.55351   0.83284   0.00000
           Z            0.00000   0.00000   1.00000
 This molecule is an asymmetric top.
 Rotational symmetry number  1.
 Warning -- assumption of classical behavior for rotation
           may cause significant error
 Rotational temperatures (Kelvin)      0.15066     0.04455     0.03438
 Rotational constants (GHZ):           3.13929     0.92828     0.71643
 Zero-point vibrational energy     264824.2 (Joules/Mol)
                                   63.29450 (Kcal/Mol)
 Warning -- explicit consideration of   8 degrees of freedom as
           vibrations may cause significant error
 Vibrational temperatures:     57.94   219.15   274.75   454.58   593.13
          (Kelvin)            594.86   625.28   725.86   910.27   957.81
                              981.95  1011.66  1148.86  1248.76  1265.06
                             1398.67  1458.20  1470.01  1482.73  1511.82
                             1599.34  1709.74  1717.01  1752.28  1923.44
                             1950.41  2135.11  2191.06  2330.11  2354.18
                             2631.53  4569.93  4587.43  4600.24  4619.87
                             4639.04

 Zero-point correction=                           0.100866 (Hartree/Particle)
 Thermal correction to Energy=                    0.108243
 Thermal correction to Enthalpy=                  0.109187
 Thermal correction to Gibbs Free Energy=         0.067610
 Sum of electronic and zero-point Energies=           -805.258445
 Sum of electronic and thermal Energies=              -805.251068
 Sum of electronic and thermal Enthalpies=            -805.250124
 Sum of electronic and thermal Free Energies=         -805.291701

                     E (Thermal)             CV                S
                      KCal/Mol        Cal/Mol-Kelvin    Cal/Mol-Kelvin
 Total                   67.924             27.333             87.507
 Electronic               0.000              0.000              0.000
 Translational            0.889              2.981             40.721
 Rotational               0.889              2.981             29.422
 Vibrational             66.146             21.371             17.363
 Vibration     1          0.594              1.981              5.246
 Vibration     2          0.619              1.900              2.643
 Vibration     3          0.634              1.852              2.218
 Vibration     4          0.703              1.643              1.331
 Vibration     5          0.776              1.444              0.919
 Vibration     6          0.777              1.441              0.915
 Vibration     7          0.795              1.395              0.844
 Vibration     8          0.860              1.240              0.647

 Optimization completed.
    -- Stationary point found.
 Normal termination of Gaussian 16 at Sat Sep 30 04:11:54 2023.
 Gaussian 16:  ES64L-G16RevB.01 20-Dec-2017

 ---------------------------------
 # rohf/gen geom=check guess=check
 ---------------------------------

 ----------------------------------
 benzoyl chloride, ROHF/cc-pVTZ-F12
 ----------------------------------
 Structure from the checkpoint file:  "phcclo.chk"
 Charge =  0 Multiplicity = 1

                         Standard orientation:
 ---------------------------------------------------------------------
 Center     Atomic      Atomic             Coordinates (Angstroms)
 Number     Number       Type             X           Y           Z
 ---------------------------------------------------------------------
      1          6           0       -1.411664   -0.209672    0.000000
      2          6           0        0.000000    0.240295    0.000000
      3          6           0        0.215648    1.624631    0.000000
      4          6           0        1.506484    2.126335    0.000000
      5          6           0        2.592125    1.254716    0.000000
      6          6           0        2.382866   -0.119671    0.000000
      7          6           0        1.091927   -0.629312    0.000000
      8          1           0       -0.637045    2.287615    0.000000
      9          1           0        1.668097    3.195428    0.000000
     10          1           0        3.599991    1.647472    0.000000
     11          1           0        3.225592   -0.796911    0.000000
     12          1           0        0.928789   -1.695526    0.000000
     13          8           0       -2.369265    0.489026    0.000000
     14         17           0       -1.652684   -2.016130    0.000000
 ---------------------------------------------------------------------

 SCF Done:  E(ROHF) =  -802.520728660     A.U. after   14 cycles

 The electronic state is 1-A'.
 Alpha  occ. eigenvalues -- -104.84251 -20.58542 -11.40996 -11.27390 -11.26739
 Alpha  occ. eigenvalues --  -11.26645 -11.26586 -11.25598 -11.25571 -10.56803
 Alpha  occ. eigenvalues --   -8.03476  -8.03336  -8.03332  -1.44530  -1.18743
 Alpha  occ. eigenvalues --   -1.12252  -1.05650  -1.04423  -0.89551  -0.85546
 Alpha  occ. eigenvalues --   -0.78589  -0.73060  -0.68059  -0.67666  -0.63827
 Alpha  occ. eigenvalues --   -0.62639  -0.61606  -0.60714  -0.54349  -0.52433
 Alpha  occ. eigenvalues --   -0.52120  -0.46885  -0.46415  -0.44893  -0.36899
 Alpha  occ. eigenvalues --   -0.36307
 Alpha virt. eigenvalues --    0.03775   0.04635   0.04699   0.05374   0.06838
 Alpha virt. eigenvalues --    0.06951   0.07113   0.08825   0.08913   0.09427
 Alpha virt. eigenvalues --    0.09575   0.09663   0.09967   0.11345   0.11985

 Mulliken charges and spin densities:
               1          2
     1  C    0.406557   0.000000
     2  C    0.119556   0.000000
     3  C   -0.156940   0.000000
     4  C   -0.145663   0.000000
     5  C   -0.141168   0.000000
     6  C   -0.126203   0.000000
     7  C   -0.150773   0.000000
     8  H    0.185752   0.000000
     9  H    0.149330   0.000000
    10  H    0.152830   0.000000
    11  H    0.147270   0.000000
    12  H    0.167572   0.000000
    13  O   -0.535360   0.000000
    14  Cl  -0.072761   0.000000
 Sum of Mulliken charges =  -0.00000   0.00000

 Dipole moment (field-independent basis, Debye):
    X=              4.1167    Y=              0.9776    Z=              0.0000  Tot=              4.2312
 Quadrupole moment (field-independent basis, Debye-Ang):
   XX=            -60.5235   YY=            -54.2817   ZZ=            -61.8296
   XY=              1.0193   XZ=              0.0000   YZ=              0.0000

 Normal termination of Gaussian 16 at Sat Sep 30 04:31:57 2023.
