 Gaussian 16, Revision B.01,
 Gaussian 16:  ES64L-G16RevB.01 20-Dec-2017

 --------------------
 # b3lyp/gen opt freq
 --------------------

 -------------------------------
 benzoyl chloride, B3LYP/pcseg-2
 -------------------------------
 Symbolic Z-matrix:
 Charge =  0 Multiplicity = 1

 SCF Done:  E(RB3LYP) =  -805.353033593     A.U. after   14 cycles
 SCF Done:  E(RB3LYP) =  -805.358366707     A.U. after   12 cycles
 SCF Done:  E(RB3LYP) =  -805.359007833     A.U. after   12 cycles
 SCF Done:  E(RB3LYP) =  -805.359306410     A.U. after   12 cycles
 SCF Done:  E(RB3LYP) =  -805.359310834     A.U. after    9 cycles
 SCF Done:  E(RB3LYP) =  -805.359311474     A.U. after    7 cycles
 Optimization completed.
    -- Stationary point found.
 Normal termination of Gaussian 16 at Tue Sep 12 11:05:03 2023.

 ------------------------------------------------------------------
 #N Geom=AllCheck Guess=TCheck SCRF=Check GenChk RB3LYP/ChkBas Freq
 ------------------------------------------------------------------

 Structure from the checkpoint file:  "/wrk/irikura/Gau-335083.chk"
 -------------------------------
 benzoyl chloride, B3LYP/pcseg-2
 -------------------------------
 Charge =  0 Multiplicity = 1

                         Standard orientation:
 ---------------------------------------------------------------------
 Center     Atomic      Atomic             Coordinates (Angstroms)
 Number     Number       Type             X           Y           Z
 ---------------------------------------------------------------------
      1          6           0       -1.411664   -0.209671    0.000000
      2          6           0        0.000000    0.240295    0.000000
      3          6           0        0.215649    1.624631    0.000000
      4          6           0        1.506485    2.126334    0.000000
      5          6           0        2.592126    1.254714    0.000000
      6          6           0        2.382866   -0.119673    0.000000
      7          6           0        1.091926   -0.629313    0.000000
      8          1           0       -0.637044    2.287615    0.000000
      9          1           0        1.668099    3.195427    0.000000
     10          1           0        3.599992    1.647470    0.000000
     11          1           0        3.225591   -0.796913    0.000000
     12          1           0        0.928788   -1.695527    0.000000
     13          8           0       -2.369265    0.489027    0.000000
     14         17           0       -1.652685   -2.016129    0.000000
 ---------------------------------------------------------------------

 SCF Done:  E(RB3LYP) =  -805.359311474     A.U. after    1 cycles

 The electronic state is 1-A'.
 Alpha  occ. eigenvalues -- -101.51314 -19.15440 -10.32797 -10.21893 -10.20689
 Alpha  occ. eigenvalues --  -10.20682 -10.20625 -10.20169 -10.20165  -9.45877
 Alpha  occ. eigenvalues --   -7.21943  -7.21248  -7.21132  -1.09943  -0.89301
 Alpha  occ. eigenvalues --   -0.84780  -0.78918  -0.77805  -0.66685  -0.63693
 Alpha  occ. eigenvalues --   -0.58427  -0.53990  -0.50197  -0.48981  -0.46826
 Alpha  occ. eigenvalues --   -0.45835  -0.45747  -0.45305  -0.39577  -0.39069
 Alpha  occ. eigenvalues --   -0.37474  -0.32918  -0.32854  -0.30319  -0.29059
 Alpha  occ. eigenvalues --   -0.28686
 Alpha virt. eigenvalues --   -0.08940  -0.04013   0.00164   0.01068   0.01519
 Alpha virt. eigenvalues --    0.03181   0.04354   0.07126   0.07235   0.11333
 Alpha virt. eigenvalues --    0.11563   0.12688   0.14638   0.15185   0.18043

 Mulliken charges:
               1
     1  C    0.431585
     2  C    0.025936
     3  C   -0.076082
     4  C   -0.006942
     5  C    0.012766
     6  C   -0.010670
     7  C   -0.035956
     8  H    0.040660
     9  H    0.031686
    10  H    0.032721
    11  H    0.030210
    12  H    0.009984
    13  O   -0.322782
    14  Cl  -0.163116
 Sum of Mulliken charges =  -0.00000

 Dipole moment (field-independent basis, Debye):
    X=              3.9420    Y=              1.1465    Z=              0.0000  Tot=              4.1053
 Quadrupole moment (field-independent basis, Debye-Ang):
   XX=            -60.0653   YY=            -54.7261   ZZ=            -60.9499
   XY=              0.6043   XZ=              0.0000   YZ=              0.0000

  Exact polarizability: 121.390  13.034 113.308  -0.000  -0.000  50.934
 Approx polarizability: 193.451   3.249 192.451  -0.000  -0.000  81.314

                      1                      2                      3
                     A"                     A"                     A'
 Frequencies --     40.2852               152.3205               190.9598
 Red. masses --      6.3204                 5.1556                 7.6780
 Frc consts  --      0.0060                 0.0705                 0.1650
 IR Inten    --      0.2452                 0.2746                 0.9137

                      4                      5                      6
                     A'                     A'                     A"
 Frequencies --    315.9544               412.2458               413.4485
 Red. masses --      8.4762                13.6741                 2.8574
 Frc consts  --      0.4985                 1.3692                 0.2878
 IR Inten    --     15.8094                12.5237                 0.0013

                      7                      8                      9
                     A"                     A'                     A'
 Frequencies --    434.5911               504.5019               632.6735
 Red. masses --      3.7791                 9.6804                 6.4403
 Frc consts  --      0.4205                 1.4517                 1.5188
 IR Inten    --      0.2104                 5.4220                 2.4967

                     10                     11                     12
                     A"                     A'                     A"
 Frequencies --    665.7143               682.4858               703.1438
 Red. masses --      4.8651                 7.5984                 1.7533
 Frc consts  --      1.2703                 2.0853                 0.5107
 IR Inten    --     21.9777               101.7916                48.6437

                     13                     14                     15
                     A"                     A"                     A'
 Frequencies --    798.4964               867.9352               879.2602
 Red. masses --      1.9686                 1.2479                 7.3701
 Frc consts  --      0.7395                 0.5539                 3.3571
 IR Inten    --     21.9255                 0.0635               242.2856

                     16                     17                     18
                     A"                     A"                     A'
 Frequencies --    972.1245              1013.4987              1021.7103
 Red. masses --      1.3999                 1.3791                 6.2366
 Frc consts  --      0.7794                 0.8346                 3.8358
 IR Inten    --      1.5208                 0.0764                 1.8900

                     19                     20                     21
                     A"                     A'                     A'
 Frequencies --   1030.5485              1050.7643              1111.5959
 Red. masses --      1.3263                 2.1773                 1.5506
 Frc consts  --      0.8299                 1.4164                 1.1289
 IR Inten    --      0.0003                 2.1282                 2.9770

                     22                     23                     24
                     A'                     A'                     A'
 Frequencies --   1188.3281              1193.3824              1217.8945
 Red. masses --      1.1390                 1.6464                 1.9836
 Frc consts  --      0.9476                 1.3815                 1.7335
 IR Inten    --      5.6778               138.5171                70.4908

                     25                     26                     27
                     A'                     A'                     A'
 Frequencies --   1336.8555              1355.6029              1483.9708
 Red. masses --      3.2979                 1.7461                 2.1680
 Frc consts  --      3.4726                 1.8906                 2.8130
 IR Inten    --      1.9338                 6.8356                17.8814

                     28                     29                     30
                     A'                     A'                     A'
 Frequencies --   1522.8630              1619.5083              1636.2327
 Red. masses --      2.1087                 5.3176                 5.4429
 Frc consts  --      2.8812                 8.2173                 8.5855
 IR Inten    --      0.3338                 7.9028                21.8411

                     31                     32                     33
                     A'                     A'                     A'
 Frequencies --   1829.0169              3176.2654              3188.4265
 Red. masses --     13.1593                 1.0865                 1.0899
 Frc consts  --     25.9369                 6.4580                 6.5279
 IR Inten    --    332.4408                 0.4322                 7.9085

                     34                     35                     36
                     A'                     A'                     A'
 Frequencies --   3197.3315              3210.9762              3224.2768
 Red. masses --      1.0945                 1.0938                 1.0922
 Frc consts  --      6.5925                 6.6444                 6.6900
 IR Inten    --      9.4136                 4.3380                 0.9080

 - Thermochemistry -
 -------------------
 Temperature   298.150 Kelvin.  Pressure   1.00000 Atm.
 Atom     1 has atomic number  6 and mass  12.00000

 Molecular mass:   140.00289 amu.
 Principal axes and moments of inertia in atomic units:
                           1         2         3
     Eigenvalues --   574.887861944.178802519.06666
           X            0.83284  -0.55351   0.00000
           Y            0.55351   0.83284   0.00000
           Z            0.00000   0.00000   1.00000
 This molecule is an asymmetric top.
 Rotational symmetry number  1.
 Warning -- assumption of classical behavior for rotation
           may cause significant error
 Rotational temperatures (Kelvin)      0.15066     0.04455     0.03438
 Rotational constants (GHZ):           3.13929     0.92828     0.71643
 Zero-point vibrational energy     264824.4 (Joules/Mol)
                                   63.29456 (Kcal/Mol)
 Warning -- explicit consideration of   8 degrees of freedom as
           vibrations may cause significant error
 Vibrational temperatures:     57.96   219.16   274.75   454.59   593.13
          (Kelvin)            594.86   625.28   725.87   910.28   957.81
                              981.94  1011.67  1148.86  1248.77  1265.06
                             1398.67  1458.20  1470.01  1482.73  1511.82
                             1599.34  1709.74  1717.01  1752.28  1923.44
                             1950.41  2135.10  2191.06  2330.11  2354.17
                             2631.55  4569.94  4587.43  4600.25  4619.88
                             4639.02

 Zero-point correction=                           0.100866 (Hartree/Particle)
 Thermal correction to Energy=                    0.108243
 Thermal correction to Enthalpy=                  0.109187
 Thermal correction to Gibbs Free Energy=         0.067610
 Sum of electronic and zero-point Energies=           -805.258445
 Sum of electronic and thermal Energies=              -805.251068
 Sum of electronic and thermal Enthalpies=            -805.250124
 Sum of electronic and thermal Free Energies=         -805.291701

                     E (Thermal)             CV                S
                      KCal/Mol        Cal/Mol-Kelvin    Cal/Mol-Kelvin
 Total                   67.924             27.333             87.506
 Electronic               0.000              0.000              0.000
 Translational            0.889              2.981             40.721
 Rotational               0.889              2.981             29.422
 Vibrational             66.146             21.371             17.363
 Vibration     1          0.594              1.981              5.245
 Vibration     2          0.619              1.900              2.643
 Vibration     3          0.634              1.852              2.218
 Vibration     4          0.703              1.643              1.331
 Vibration     5          0.776              1.444              0.919
 Vibration     6          0.777              1.441              0.915
 Vibration     7          0.795              1.395              0.844
 Vibration     8          0.860              1.240              0.647

 Optimization completed.
    -- Stationary point found.
 Normal termination of Gaussian 16 at Tue Sep 12 11:11:36 2023.
