 Gaussian 16, Revision B.01,

 ---------------------------------------
 # b3lyp/gen opt freq CPHF(Grid=OneStep)
 ---------------------------------------

 -------------------------------
 benzoyl fluoride, B3LYP/pcseg-2
 -------------------------------
 Symbolic Z-matrix:
 Charge =  0 Multiplicity = 1

 SCF Done:  E(RB3LYP) =  -445.015374345     A.U. after   14 cycles
 Optimization completed.
    -- Stationary point found.
 Normal termination of Gaussian 16 at Sat Sep 30 22:07:40 2023.

 ------------------------------------------------------------------
 #N Geom=AllCheck Guess=TCheck SCRF=Check GenChk RB3LYP/ChkBas Freq
 ------------------------------------------------------------------

 Structure from the checkpoint file:  "phcfo.chk"
 -------------------------------
 benzoyl fluoride, B3LYP/pcseg-2
 -------------------------------
 Charge =  0 Multiplicity = 1

 SCF Done:  E(RB3LYP) =  -445.015374345     A.U. after    1 cycles

  Exact polarizability:  89.258   0.078 110.356   0.000   0.000  44.916
 Approx polarizability: 152.645   5.434 173.489   0.000   0.000  70.120

                      1                      2                      3
                     A"                     A"                     A'
 Frequencies --     64.8732               157.5965               211.7965
 Red. masses --      7.7863                 5.1811                 6.8144
 Frc consts  --      0.0193                 0.0758                 0.1801
 IR Inten    --      0.2779                 0.4895                 1.4767

                      4                      5                      6
                     A'                     A"                     A"
 Frequencies --    378.1423               414.9487               440.8064
 Red. masses --      9.5006                 2.8502                 3.6494
 Frc consts  --      0.8004                 0.2891                 0.4178
 IR Inten    --      2.6990                 0.0038                 0.1197

                      7                      8                      9
                     A'                     A'                     A'
 Frequencies --    493.5669               632.7936               654.9709
 Red. masses --      8.1897                 6.4338                 9.7598
 Frc consts  --      1.1755                 1.5179                 2.4668
 IR Inten    --      0.8624                 0.5078                17.1159

                     10                     11                     12
                     A"                     A"                     A'
 Frequencies --    700.0094               717.9045               776.1680
 Red. masses --      3.3805                 1.6303                 8.3192
 Frc consts  --      0.9760                 0.4950                 2.9529
 IR Inten    --      1.1669               103.6392                14.2548

                     13                     14                     15
                     A"                     A"                     A"
 Frequencies --    818.7573               870.4293               971.6727
 Red. masses --      2.6855                 1.2473                 1.4210
 Frc consts  --      1.0607                 0.5568                 0.7904
 IR Inten    --      3.2111                 0.0037                 1.4060

                     16                     17                     18
                     A"                     A'                     A'
 Frequencies --   1012.7911              1022.1851              1027.8192
 Red. masses --      1.3799                 6.3181                 7.7773
 Frc consts  --      0.8340                 3.8895                 4.8408
 IR Inten    --      0.0042                 6.0551               176.3381

                     19                     20                     21
                     A"                     A'                     A'
 Frequencies --   1029.9073              1054.7919              1110.6130
 Red. masses --      1.3225                 2.0429                 1.5941
 Frc consts  --      0.8265                 1.3392                 1.1585
 IR Inten    --      0.0019                22.1272                 1.8161

                     22                     23                     24
                     A'                     A'                     A'
 Frequencies --   1188.2809              1201.8614              1257.1174
 Red. masses --      1.1241                 1.1536                 4.7512
 Frc consts  --      0.9351                 0.9818                 4.4239
 IR Inten    --      0.7834                28.1448               227.7477

                     25                     26                     27
                     A'                     A'                     A'
 Frequencies --   1340.0564              1356.5661              1486.9740
 Red. masses --      3.7554                 1.6262                 2.1857
 Frc consts  --      3.9733                 1.7633                 2.8473
 IR Inten    --      2.3862                 4.2818                14.3428

                     28                     29                     30
                     A'                     A'                     A'
 Frequencies --   1527.7061              1622.9782              1641.5315
 Red. masses --      2.1678                 5.4807                 5.4311
 Frc consts  --      2.9809                 8.5058                 8.6226
 IR Inten    --      0.7726                 2.2446                24.3460

                     31                     32                     33
                     A'                     A'                     A'
 Frequencies --   1861.5189              3176.7951              3188.8592
 Red. masses --     13.1368                 1.0864                 1.0895
 Frc consts  --     26.8209                 6.4599                 6.5276
 IR Inten    --    407.1880                 0.4568                 7.3901

                     34                     35                     36
                     A'                     A'                     A'
 Frequencies --   3197.2800              3208.8707              3218.0764
 Red. masses --      1.0938                 1.0944                 1.0934
 Frc consts  --      6.5880                 6.6396                 6.6716
 IR Inten    --      8.5294                 3.5877                 1.7934

 - Thermochemistry -
 -------------------
 Temperature   298.150 Kelvin.  Pressure   1.00000 Atm.
 Atom     1 has atomic number  6 and mass  12.00000

 Molecular mass:   124.03244 amu.
 Principal axes and moments of inertia in atomic units:
                           1         2         3
     Eigenvalues --   468.534251485.008901953.54314
           X           -0.18928   0.98192   0.00000
           Y            0.98192   0.18928   0.00000
           Z           -0.00000  -0.00000   1.00000
 This molecule is an asymmetric top.
 Rotational symmetry number  1.
 Warning -- assumption of classical behavior for rotation
           may cause significant error
 Rotational temperatures (Kelvin)      0.18486     0.05833     0.04434
 Rotational constants (GHZ):           3.85189     1.21531     0.92383
 Zero-point vibrational energy     269381.2 (Joules/Mol)
                                   64.38365 (Kcal/Mol)
 Warning -- explicit consideration of   7 degrees of freedom as
           vibrations may cause significant error
 Vibrational temperatures:     93.34   226.75   304.73   544.06   597.02
          (Kelvin)            634.22   710.13   910.45   942.36  1007.16
                             1032.90  1116.73  1178.01  1252.35  1398.02
                             1457.18  1470.70  1478.80  1481.81  1517.61
                             1597.92  1709.67  1729.21  1808.71  1928.04
                             1951.80  2139.42  2198.03  2335.10  2361.80
                             2678.31  4570.70  4588.06  4600.17  4616.85
                             4630.09

 Zero-point correction=                           0.102602 (Hartree/Particle)
 Thermal correction to Energy=                    0.109562
 Thermal correction to Enthalpy=                  0.110506
 Thermal correction to Gibbs Free Energy=         0.070532
 Sum of electronic and zero-point Energies=           -444.912772
 Sum of electronic and thermal Energies=              -444.905812
 Sum of electronic and thermal Enthalpies=            -444.904868
 Sum of electronic and thermal Free Energies=         -444.944842

                     E (Thermal)             CV                S
                      KCal/Mol        Cal/Mol-Kelvin    Cal/Mol-Kelvin
 Total                   68.751             26.119             84.133
 Electronic               0.000              0.000              0.000
 Translational            0.889              2.981             40.360
 Rotational               0.889              2.981             28.699
 Vibrational             66.974             20.157             15.075
 Vibration     1          0.597              1.971              4.303
 Vibration     2          0.621              1.894              2.578
 Vibration     3          0.643              1.823              2.028
 Vibration     4          0.748              1.517              1.047
 Vibration     5          0.778              1.438              0.909
 Vibration     6          0.801              1.381              0.824
 Vibration     7          0.849              1.264              0.674

 Optimization completed.
    -- Stationary point found.
 Normal termination of Gaussian 16 at Sat Sep 30 22:28:57 2023.
 Gaussian 16:  ES64L-G16RevB.01 20-Dec-2017

 ---------------------------------
 # rohf/gen geom=check guess=check
 ---------------------------------

 ----------------------------------
 benzoyl fluoride, ROHF/cc-pVTZ-F12
 ----------------------------------
 Structure from the checkpoint file:  "phcfo.chk"
 Charge =  0 Multiplicity = 1

                         Standard orientation:
 ---------------------------------------------------------------------
 Center     Atomic      Atomic             Coordinates (Angstroms)
 Number     Number       Type             X           Y           Z
 ---------------------------------------------------------------------
      1          6           0       -0.170182    1.701535   -0.000000
      2          6           0        0.000000    0.235732   -0.000000
      3          6           0        1.302335   -0.272324    0.000000
      4          6           0        1.509739   -1.642255    0.000000
      5          6           0        0.421319   -2.510577    0.000000
      6          6           0       -0.875546   -2.008133    0.000000
      7          6           0       -1.090591   -0.637074   -0.000000
      8          1           0        2.134019    0.417299    0.000000
      9          1           0        2.516949   -2.035039    0.000000
     10          1           0        0.584956   -3.579738    0.000000
     11          1           0       -1.718985   -2.684409    0.000000
     12          1           0       -2.094869   -0.241670   -0.000000
     13          8           0        0.670305    2.537310   -0.000000
     14          9           0       -1.485217    2.069295   -0.000000
 ---------------------------------------------------------------------

 SCF Done:  E(ROHF) =  -442.495293399     A.U. after   13 cycles

 The electronic state is 1-A'.
 Alpha  occ. eigenvalues --  -26.32130 -20.57416 -11.42333 -11.27163 -11.26816
 Alpha  occ. eigenvalues --  -11.26644 -11.26596 -11.25641 -11.25605  -1.64508
 Alpha  occ. eigenvalues --   -1.42674  -1.18630  -1.06608  -1.04537  -0.91322
 Alpha  occ. eigenvalues --   -0.85801  -0.82358  -0.76775  -0.71434  -0.71356
 Alpha  occ. eigenvalues --   -0.70144  -0.65632  -0.64768  -0.61971  -0.60694
 Alpha  occ. eigenvalues --   -0.56161  -0.54346  -0.52161  -0.52004  -0.48959
 Alpha  occ. eigenvalues --   -0.36964  -0.36354
 Alpha virt. eigenvalues --    0.03828   0.04692   0.05298   0.05376   0.06750
 Alpha virt. eigenvalues --    0.06818   0.07079   0.08756   0.08814   0.09347
 Alpha virt. eigenvalues --    0.09615   0.09982   0.10461   0.11817   0.11985

 Mulliken charges and spin densities:
               1          2
     1  C    0.780058   0.000000
     2  C    0.125232   0.000000
     3  C   -0.131972   0.000000
     4  C   -0.170054   0.000000
     5  C   -0.151754   0.000000
     6  C   -0.156787   0.000000
     7  C   -0.126109   0.000000
     8  H    0.180770   0.000000
     9  H    0.150381   0.000000
    10  H    0.152421   0.000000
    11  H    0.149402   0.000000
    12  H    0.172776   0.000000
    13  O   -0.569969   0.000000
    14  F   -0.404396   0.000000
 Sum of Mulliken charges =  -0.00000   0.00000

 Dipole moment (field-independent basis, Debye):
    X=              0.0132    Y=             -4.3731    Z=             -0.0000  Tot=              4.3731
 Quadrupole moment (field-independent basis, Debye-Ang):
   XX=            -47.3309   YY=            -55.0577   ZZ=            -53.4904
   XY=             -1.0580   XZ=             -0.0000   YZ=             -0.0000

 Normal termination of Gaussian 16 at Sat Sep 30 22:46:35 2023.
