 Gaussian 16, Revision B.01,
 Gaussian 16:  ES64L-G16RevB.01 20-Dec-2017

 --------------------
 # b3lyp/gen opt freq
 --------------------

 -------------------------------
 benzoyl fluoride, B3LYP/pcseg-2
 -------------------------------
 Symbolic Z-matrix:
 Charge =  0 Multiplicity = 1

 SCF Done:  E(RB3LYP) =  -445.015165783     A.U. after   14 cycles
 SCF Done:  E(RB3LYP) =  -445.015339268     A.U. after   10 cycles
 SCF Done:  E(RB3LYP) =  -445.015368244     A.U. after    9 cycles
 SCF Done:  E(RB3LYP) =  -445.015374345     A.U. after    8 cycles
 Optimization completed.
    -- Stationary point found.
 Normal termination of Gaussian 16 at Thu Jun 16 21:27:27 2022.

 ------------------------------------------------------------------
 #N Geom=AllCheck Guess=TCheck SCRF=Check GenChk RB3LYP/ChkBas Freq
 ------------------------------------------------------------------

 Structure from the checkpoint file:  "/wrk/irikura/Gau-19308.chk"
 -------------------------------
 benzoyl fluoride, B3LYP/pcseg-2
 -------------------------------
 Charge =  0 Multiplicity = 1

                         Standard orientation:
 ---------------------------------------------------------------------
 Center     Atomic      Atomic             Coordinates (Angstroms)
 Number     Number       Type             X           Y           Z
 ---------------------------------------------------------------------
      1          6           0       -0.170182    1.701535   -0.000000
      2          6           0        0.000000    0.235732    0.000000
      3          6           0        1.302335   -0.272324    0.000000
      4          6           0        1.509740   -1.642255    0.000000
      5          6           0        0.421320   -2.510577    0.000000
      6          6           0       -0.875545   -2.008133   -0.000000
      7          6           0       -1.090591   -0.637074   -0.000000
      8          1           0        2.134019    0.417300    0.000000
      9          1           0        2.516950   -2.035038    0.000000
     10          1           0        0.584957   -3.579738    0.000000
     11          1           0       -1.718984   -2.684410   -0.000000
     12          1           0       -2.094869   -0.241671   -0.000000
     13          8           0        0.670304    2.537310    0.000000
     14          9           0       -1.485218    2.069294   -0.000000
 ---------------------------------------------------------------------

 SCF Done:  E(RB3LYP) =  -445.015374345     A.U. after    1 cycles

 The electronic state is 1-A'.
 Alpha  occ. eigenvalues --  -24.70088 -19.14274 -10.34353 -10.21549 -10.20666
 Alpha  occ. eigenvalues --  -10.20575 -10.20504 -10.20106 -10.20083  -1.24477
 Alpha  occ. eigenvalues --   -1.08020  -0.89077  -0.79481  -0.77796  -0.67679
 Alpha  occ. eigenvalues --   -0.63772  -0.60529  -0.56884  -0.51430  -0.50417
 Alpha  occ. eigenvalues --   -0.50101  -0.47376  -0.47152  -0.45309  -0.41624
 Alpha  occ. eigenvalues --   -0.40745  -0.38642  -0.38337  -0.37439  -0.32135
 Alpha  occ. eigenvalues --   -0.28992  -0.28634
 Alpha virt. eigenvalues --   -0.08103  -0.03959   0.00596   0.02466   0.03161
 Alpha virt. eigenvalues --    0.03765   0.06648   0.07111   0.10950   0.11579
 Alpha virt. eigenvalues --    0.12283   0.14703   0.14968   0.16215   0.17915

 Mulliken charges:
               1
     1  C    0.552206
     2  C    0.072555
     3  C   -0.091973
     4  C    0.001007
     5  C    0.010436
     6  C    0.000416
     7  C   -0.083882
     8  H    0.042652
     9  H    0.031274
    10  H    0.032590
    11  H    0.030130
    12  H    0.035344
    13  O   -0.359352
    14  F   -0.273403
 Sum of Mulliken charges =  -0.00000

 Dipole moment (field-independent basis, Debye):
    X=              0.0615    Y=             -4.0983    Z=              0.0000  Tot=              4.0987
 Quadrupole moment (field-independent basis, Debye-Ang):
   XX=            -47.5243   YY=            -54.6788   ZZ=            -52.7992
   XY=             -0.8964   XZ=             -0.0000   YZ=              0.0000

  Exact polarizability:  89.258   0.078 110.356  -0.000  -0.000  44.916
 Approx polarizability: 152.645   5.434 173.489   0.000  -0.000  70.120

                      1                      2                      3
                     A"                     A"                     A'
 Frequencies --     64.8785               157.6001               211.7988
 Red. masses --      7.7864                 5.1812                 6.8145
 Frc consts  --      0.0193                 0.0758                 0.1801
 IR Inten    --      0.2779                 0.4895                 1.4767

                      4                      5                      6
                     A'                     A"                     A"
 Frequencies --    378.1428               414.9485               440.8085
 Red. masses --      9.5006                 2.8502                 3.6494
 Frc consts  --      0.8004                 0.2891                 0.4178
 IR Inten    --      2.6990                 0.0038                 0.1197

                      7                      8                      9
                     A'                     A'                     A'
 Frequencies --    493.5666               632.7925               654.9711
 Red. masses --      8.1897                 6.4338                 9.7600
 Frc consts  --      1.1755                 1.5179                 2.4668
 IR Inten    --      0.8625                 0.5078                17.1159

                     10                     11                     12
                     A"                     A"                     A'
 Frequencies --    700.0124               717.9061               776.1666
 Red. masses --      3.3807                 1.6303                 8.3192
 Frc consts  --      0.9760                 0.4950                 2.9528
 IR Inten    --      1.1661               103.6427                14.2558

                     13                     14                     15
                     A"                     A"                     A"
 Frequencies --    818.7600               870.4366               971.6769
 Red. masses --      2.6854                 1.2473                 1.4210
 Frc consts  --      1.0607                 0.5568                 0.7904
 IR Inten    --      3.2118                 0.0037                 1.4062

                     16                     17                     18
                     A"                     A'                     A'
 Frequencies --   1012.7925              1022.1845              1027.8151
 Red. masses --      1.3799                 6.3187                 7.7769
 Frc consts  --      0.8340                 3.8899                 4.8404
 IR Inten    --      0.0042                 6.1076               176.2880

                     19                     20                     21
                     A"                     A'                     A'
 Frequencies --   1029.9093              1054.7921              1110.6152
 Red. masses --      1.3225                 2.0429                 1.5941
 Frc consts  --      0.8265                 1.3392                 1.1585
 IR Inten    --      0.0019                22.1106                 1.8170

                     22                     23                     24
                     A'                     A'                     A'
 Frequencies --   1188.2825              1201.8647              1257.1211
 Red. masses --      1.1241                 1.1536                 4.7514
 Frc consts  --      0.9352                 0.9818                 4.4241
 IR Inten    --      0.7827                28.1388               227.7526

                     25                     26                     27
                     A'                     A'                     A'
 Frequencies --   1340.0594              1356.5681              1486.9753
 Red. masses --      3.7560                 1.6261                 2.1857
 Frc consts  --      3.9740                 1.7631                 2.8474
 IR Inten    --      2.3856                 4.2798                14.3430

                     28                     29                     30
                     A'                     A'                     A'
 Frequencies --   1527.7072              1622.9761              1641.5346
 Red. masses --      2.1678                 5.4808                 5.4311
 Frc consts  --      2.9809                 8.5058                 8.6227
 IR Inten    --      0.7733                 2.2459                24.3443

                     31                     32                     33
                     A'                     A'                     A'
 Frequencies --   1861.5170              3176.7922              3188.8581
 Red. masses --     13.1368                 1.0864                 1.0895
 Frc consts  --     26.8209                 6.4599                 6.5276
 IR Inten    --    407.2116                 0.4572                 7.3913

                     34                     35                     36
                     A'                     A'                     A'
 Frequencies --   3197.2782              3208.8829              3218.0558
 Red. masses --      1.0938                 1.0944                 1.0934
 Frc consts  --      6.5880                 6.6397                 6.6716
 IR Inten    --      8.5321                 3.5858                 1.7922

 - Thermochemistry -
 -------------------
 Temperature   298.150 Kelvin.  Pressure   1.00000 Atm.
 Atom     1 has atomic number  6 and mass  12.00000

 Molecular mass:   124.03244 amu.
 Principal axes and moments of inertia in atomic units:
                           1         2         3
     Eigenvalues --   468.534131485.008831953.54296
           X           -0.18928   0.98192   0.00000
           Y            0.98192   0.18928   0.00000
           Z           -0.00000   0.00000   1.00000
 This molecule is an asymmetric top.
 Rotational symmetry number  1.
 Warning -- assumption of classical behavior for rotation
           may cause significant error
 Rotational temperatures (Kelvin)      0.18486     0.05833     0.04434
 Rotational constants (GHZ):           3.85189     1.21531     0.92383
 Zero-point vibrational energy     269381.4 (Joules/Mol)
                                   64.38369 (Kcal/Mol)
 Warning -- explicit consideration of   7 degrees of freedom as
           vibrations may cause significant error
 Vibrational temperatures:     93.35   226.75   304.73   544.06   597.02
          (Kelvin)            634.23   710.13   910.45   942.36  1007.16
                             1032.91  1116.73  1178.01  1252.36  1398.03
                             1457.18  1470.70  1478.80  1481.81  1517.61
                             1597.93  1709.67  1729.22  1808.72  1928.05
                             1951.80  2139.43  2198.03  2335.10  2361.80
                             2678.31  4570.70  4588.06  4600.17  4616.87
                             4630.06

 Zero-point correction=                           0.102602 (Hartree/Particle)
 Thermal correction to Energy=                    0.109562
 Thermal correction to Enthalpy=                  0.110506
 Thermal correction to Gibbs Free Energy=         0.070532
 Sum of electronic and zero-point Energies=           -444.912772
 Sum of electronic and thermal Energies=              -444.905812
 Sum of electronic and thermal Enthalpies=            -444.904868
 Sum of electronic and thermal Free Energies=         -444.944842

                     E (Thermal)             CV                S
                      KCal/Mol        Cal/Mol-Kelvin    Cal/Mol-Kelvin
 Total                   68.751             26.119             84.133
 Electronic               0.000              0.000              0.000
 Translational            0.889              2.981             40.360
 Rotational               0.889              2.981             28.699
 Vibrational             66.974             20.157             15.074
 Vibration     1          0.597              1.971              4.303
 Vibration     2          0.621              1.894              2.578
 Vibration     3          0.643              1.823              2.028
 Vibration     4          0.748              1.517              1.047
 Vibration     5          0.778              1.438              0.909
 Vibration     6          0.801              1.381              0.824
 Vibration     7          0.849              1.264              0.674

 Optimization completed.
    -- Stationary point found.
 Normal termination of Gaussian 16 at Thu Jun 16 21:33:40 2022.
