 Gaussian 16, Revision B.01,
 Gaussian 16:  ES64L-G16RevB.01 20-Dec-2017

 --------------------
 # b3lyp/gen opt freq
 --------------------

 ---------------------------
 benzaldehyde, B3LYP/pcseg-2
 ---------------------------
 Symbolic Z-matrix:
 Charge =  0 Multiplicity = 1

 SCF Done:  E(RB3LYP) =  -345.709172003     A.U. after   14 cycles
 SCF Done:  E(RB3LYP) =  -345.709278384     A.U. after    9 cycles
 SCF Done:  E(RB3LYP) =  -345.709280062     A.U. after    7 cycles
 Optimization completed.
    -- Stationary point found.
 Normal termination of Gaussian 16 at Wed Jun 15 16:51:46 2022.

 ------------------------------------------------------------------
 #N Geom=AllCheck Guess=TCheck SCRF=Check GenChk RB3LYP/ChkBas Freq
 ------------------------------------------------------------------

 Structure from the checkpoint file:  "/wrk/irikura/Gau-4532.chk"
 ---------------------------
 benzaldehyde, B3LYP/pcseg-2
 ---------------------------
 Charge =  0 Multiplicity = 1

                         Standard orientation:
 ---------------------------------------------------------------------
 Center     Atomic      Atomic             Coordinates (Angstroms)
 Number     Number       Type             X           Y           Z
 ---------------------------------------------------------------------
      1          6           0       -0.000000    0.570349    0.000000
      2          6           0       -1.042062   -0.362087   -0.000000
      3          6           0       -0.755677   -1.717000   -0.000000
      4          6           0        0.569945   -2.150463   -0.000000
      5          6           0        1.610462   -1.228236    0.000000
      6          6           0        1.324246    0.130803    0.000000
      7          6           0       -0.283376    2.021378    0.000000
      8          8           0       -1.386712    2.513644   -0.000000
      9          1           0        0.619689    2.664713    0.000000
     10          1           0       -2.061528   -0.001936   -0.000000
     11          1           0       -1.559300   -2.440786   -0.000000
     12          1           0        0.789617   -3.209733   -0.000000
     13          1           0        2.637002   -1.568065    0.000000
     14          1           0        2.126983    0.858191    0.000000
 ---------------------------------------------------------------------

 SCF Done:  E(RB3LYP) =  -345.709280062     A.U. after    1 cycles

 The electronic state is 1-A'.
 Alpha  occ. eigenvalues --  -19.12443 -10.26516 -10.20029 -10.19888 -10.19677
 Alpha  occ. eigenvalues --  -10.19522 -10.19472 -10.19388  -1.05352  -0.88129
 Alpha  occ. eigenvalues --   -0.78321  -0.77018  -0.66344  -0.62985  -0.58525
 Alpha  occ. eigenvalues --   -0.53601  -0.49598  -0.47420  -0.45312  -0.44482
 Alpha  occ. eigenvalues --   -0.43865  -0.42037  -0.38009  -0.37906  -0.36564
 Alpha  occ. eigenvalues --   -0.28080  -0.27779  -0.26880
 Alpha virt. eigenvalues --   -0.07855  -0.03362   0.00995   0.01832   0.02669
 Alpha virt. eigenvalues --    0.04172   0.05531   0.07232   0.09251   0.11221
 Alpha virt. eigenvalues --    0.12234   0.13601   0.15455   0.16727   0.17784

 Mulliken charges:
               1
     1  C    0.217435
     2  C   -0.096437
     3  C    0.001527
     4  C    0.000423
     5  C   -0.002930
     6  C   -0.112789
     7  C    0.259149
     8  O   -0.386841
     9  H   -0.016807
    10  H    0.036866
    11  H    0.028716
    12  H    0.029545
    13  H    0.027652
    14  H    0.014491
 Sum of Mulliken charges =  -0.00000

 Dipole moment (field-independent basis, Debye):
    X=              2.3412    Y=             -2.6117    Z=              0.0000  Tot=              3.5075
 Quadrupole moment (field-independent basis, Debye-Ang):
   XX=            -45.2275   YY=            -48.0053   ZZ=            -49.3051
   XY=              6.5143   XZ=             -0.0000   YZ=             -0.0000

  Exact polarizability:  93.122  -8.096 110.563  -0.000   0.000  44.862
 Approx polarizability: 160.253 -15.418 174.008   0.000   0.000  70.060

                      1                      2                      3
                     A"                     A'                     A"
 Frequencies --    114.9683               219.8418               234.2847
 Red. masses --      4.9448                 5.6821                 2.4242
 Frc consts  --      0.0385                 0.1618                 0.0784
 IR Inten    --      5.0067                 7.8256                 7.8709

                      4                      5                      6
                     A"                     A'                     A"
 Frequencies --    417.9369               443.1393               465.5822
 Red. masses --      2.8606                 6.9668                 2.9103
 Frc consts  --      0.2944                 0.8060                 0.3717
 IR Inten    --      0.1020                 0.3190                 7.0906

                      7                      8                      9
                     A'                     A'                     A"
 Frequencies --    632.6598               663.6639               707.0092
 Red. masses --      6.4271                 6.4594                 2.0574
 Frc consts  --      1.5157                 1.6763                 0.6059
 IR Inten    --      0.3555                24.0756                30.0521

                     10                     11                     12
                     A"                     A'                     A"
 Frequencies --    766.4993               839.5636               870.6120
 Red. masses --      1.4969                 4.6504                 1.2476
 Frc consts  --      0.5182                 1.9313                 0.5571
 IR Inten    --     49.6761                33.1490                 0.0099

                     13                     14                     15
                     A"                     A"                     A'
 Frequencies --    950.4505              1009.3294              1020.9651
 Red. masses --      1.3357                 1.3802                 6.2612
 Frc consts  --      0.7109                 0.8284                 3.8453
 IR Inten    --      1.2621                 0.0026                 0.8453

                     16                     17                     18
                     A"                     A"                     A'
 Frequencies --   1024.8659              1036.8459              1045.5716
 Red. masses --      1.4114                 1.6835                 2.1472
 Frc consts  --      0.8734                 1.0663                 1.3830
 IR Inten    --      0.1921                 0.8556                 3.1177

                     19                     20                     21
                     A'                     A'                     A'
 Frequencies --   1102.7568              1185.9303              1189.7321
 Red. masses --      1.5487                 1.1386                 1.2362
 Frc consts  --      1.1096                 0.9435                 1.0309
 IR Inten    --      4.5742                 4.6842                27.2036

                     22                     23                     24
                     A'                     A'                     A'
 Frequencies --   1224.1096              1336.3870              1354.5838
 Red. masses --      2.6199                 2.7304                 1.9999
 Frc consts  --      2.3130                 2.8730                 2.1620
 IR Inten    --     55.0673                16.9796                 5.9056

                     25                     26                     27
                     A'                     A'                     A'
 Frequencies --   1424.0675              1490.2953              1525.5134
 Red. masses --      1.2561                 2.1032                 2.1828
 Frc consts  --      1.5009                 2.7521                 2.9929
 IR Inten    --      5.4012                12.3516                 0.6800

                     28                     29                     30
                     A'                     A'                     A'
 Frequencies --   1622.4576              1639.1304              1769.3723
 Red. masses --      5.4231                 5.3747                10.1319
 Frc consts  --      8.4110                 8.5081                18.6888
 IR Inten    --     12.4409                32.0470               285.7070

                     31                     32                     33
                     A'                     A'                     A'
 Frequencies --   2885.4786              3164.1806              3174.2248
 Red. masses --      1.0826                 1.0875                 1.0873
 Frc consts  --      5.3105                 6.4149                 6.4545
 IR Inten    --    114.4396                 3.7748                 1.0454

                     34                     35                     36
                     A'                     A'                     A'
 Frequencies --   3185.4149              3195.1475              3201.3930
 Red. masses --      1.0904                 1.0944                 1.0958
 Frc consts  --      6.5190                 6.5830                 6.6171
 IR Inten    --     11.0132                10.7394                 8.0241

 - Thermochemistry -
 -------------------
 Temperature   298.150 Kelvin.  Pressure   1.00000 Atm.
 Atom     1 has atomic number  6 and mass  12.00000

 Molecular mass:   106.04186 amu.
 Principal axes and moments of inertia in atomic units:
                           1         2         3
     Eigenvalues --   341.710861152.113131493.82398
           X           -0.37101   0.92863   0.00000
           Y            0.92863   0.37101   0.00000
           Z           -0.00000  -0.00000   1.00000
 This molecule is an asymmetric top.
 Rotational symmetry number  1.
 Rotational temperatures (Kelvin)      0.25347     0.07518     0.05798
 Rotational constants (GHZ):           5.28149     1.56646     1.20814
 Zero-point vibrational energy     287905.0 (Joules/Mol)
                                   68.81096 (Kcal/Mol)
 Warning -- explicit consideration of   6 degrees of freedom as
           vibrations may cause significant error
 Vibrational temperatures:    165.41   316.30   337.08   601.32   637.58
          (Kelvin)            669.87   910.26   954.86  1017.23  1102.82
                             1207.94  1252.62  1367.49  1452.20  1468.94
                             1474.55  1491.79  1504.34  1586.62  1706.29
                             1711.76  1761.22  1922.76  1948.94  2048.92
                             2144.20  2194.87  2334.35  2358.34  2545.73
                             4151.56  4552.55  4567.00  4583.10  4597.10
                             4606.09

 Zero-point correction=                           0.109657 (Hartree/Particle)
 Thermal correction to Energy=                    0.115973
 Thermal correction to Enthalpy=                  0.116918
 Thermal correction to Gibbs Free Energy=         0.079072
 Sum of electronic and zero-point Energies=           -345.599623
 Sum of electronic and thermal Energies=              -345.593307
 Sum of electronic and thermal Enthalpies=            -345.592363
 Sum of electronic and thermal Free Energies=         -345.630208

                     E (Thermal)             CV                S
                      KCal/Mol        Cal/Mol-Kelvin    Cal/Mol-Kelvin
 Total                   72.774             23.838             79.653
 Electronic               0.000              0.000              0.000
 Translational            0.889              2.981             39.893
 Rotational               0.889              2.981             27.866
 Vibrational             70.997             17.877             11.894
 Vibration     1          0.608              1.937              3.183
 Vibration     2          0.647              1.811              1.960
 Vibration     3          0.654              1.788              1.846
 Vibration     4          0.781              1.431              0.899
 Vibration     5          0.803              1.376              0.817
 Vibration     6          0.823              1.326              0.750

 Optimization completed.
    -- Stationary point found.
 Normal termination of Gaussian 16 at Wed Jun 15 16:57:12 2022.
