 Gaussian 16, Revision B.01,

 ---------------------------------------
 # b3lyp/gen opt freq CPHF(Grid=OneStep)
 ---------------------------------------

 ---------------------------
 benzaldehyde, B3LYP/pcseg-2
 ---------------------------
 Symbolic Z-matrix:
 Charge =  0 Multiplicity = 1

 SCF Done:  E(RB3LYP) =  -345.709280062     A.U. after   14 cycles
 Optimization completed.
    -- Stationary point found.
 Normal termination of Gaussian 16 at Fri Sep 29 02:01:56 2023.

 ------------------------------------------------------------------
 #N Geom=AllCheck Guess=TCheck SCRF=Check GenChk RB3LYP/ChkBas Freq
 ------------------------------------------------------------------

 Structure from the checkpoint file:  "phcho.chk"
 ---------------------------
 benzaldehyde, B3LYP/pcseg-2
 ---------------------------
 Charge =  0 Multiplicity = 1

 SCF Done:  E(RB3LYP) =  -345.709280062     A.U. after    1 cycles

  Exact polarizability:  93.122  -8.096 110.563   0.000   0.000  44.862
 Approx polarizability: 160.253 -15.418 174.008   0.000   0.000  70.060

                      1                      2                      3
                     A"                     A'                     A"
 Frequencies --    114.9684               219.8427               234.2829
 Red. masses --      4.9447                 5.6821                 2.4242
 Frc consts  --      0.0385                 0.1618                 0.0784
 IR Inten    --      5.0066                 7.8255                 7.8706

                      4                      5                      6
                     A"                     A'                     A"
 Frequencies --    417.9372               443.1385               465.5829
 Red. masses --      2.8606                 6.9668                 2.9103
 Frc consts  --      0.2944                 0.8060                 0.3717
 IR Inten    --      0.1020                 0.3189                 7.0911

                      7                      8                      9
                     A'                     A'                     A"
 Frequencies --    632.6593               663.6633               707.0104
 Red. masses --      6.4271                 6.4595                 2.0574
 Frc consts  --      1.5157                 1.6763                 0.6059
 IR Inten    --      0.3556                24.0762                30.0527

                     10                     11                     12
                     A"                     A'                     A"
 Frequencies --    766.5005               839.5638               870.6114
 Red. masses --      1.4969                 4.6504                 1.2476
 Frc consts  --      0.5182                 1.9313                 0.5571
 IR Inten    --     49.6740                33.1467                 0.0099

                     13                     14                     15
                     A"                     A"                     A'
 Frequencies --    950.4513              1009.3280              1020.9655
 Red. masses --      1.3357                 1.3802                 6.2612
 Frc consts  --      0.7109                 0.8284                 3.8453
 IR Inten    --      1.2620                 0.0027                 0.8450

                     16                     17                     18
                     A"                     A"                     A'
 Frequencies --   1024.8651              1036.8450              1045.5729
 Red. masses --      1.4114                 1.6835                 2.1472
 Frc consts  --      0.8734                 1.0663                 1.3830
 IR Inten    --      0.1920                 0.8552                 3.1188

                     19                     20                     21
                     A'                     A'                     A'
 Frequencies --   1102.7564              1185.9306              1189.7329
 Red. masses --      1.5487                 1.1386                 1.2362
 Frc consts  --      1.1096                 0.9435                 1.0309
 IR Inten    --      4.5741                 4.6832                27.2045

                     22                     23                     24
                     A'                     A'                     A'
 Frequencies --   1224.1100              1336.3856              1354.5832
 Red. masses --      2.6200                 2.7300                 2.0001
 Frc consts  --      2.3131                 2.8726                 2.1623
 IR Inten    --     55.0693                16.9807                 5.9046

                     25                     26                     27
                     A'                     A'                     A'
 Frequencies --   1424.0651              1490.2937              1525.5129
 Red. masses --      1.2561                 2.1032                 2.1828
 Frc consts  --      1.5008                 2.7521                 2.9929
 IR Inten    --      5.3992                12.3511                 0.6804

                     28                     29                     30
                     A'                     A'                     A'
 Frequencies --   1622.4562              1639.1280              1769.3690
 Red. masses --      5.4232                 5.3748                10.1319
 Frc consts  --      8.4111                 8.5082                18.6886
 IR Inten    --     12.4471                32.0437               285.6977

                     31                     32                     33
                     A'                     A'                     A'
 Frequencies --   2885.4749              3164.1755              3174.2227
 Red. masses --      1.0826                 1.0875                 1.0873
 Frc consts  --      5.3105                 6.4149                 6.4545
 IR Inten    --    114.4328                 3.7772                 1.0458

                     34                     35                     36
                     A'                     A'                     A'
 Frequencies --   3185.4148              3195.1441              3201.3854
 Red. masses --      1.0904                 1.0944                 1.0958
 Frc consts  --      6.5190                 6.5830                 6.6171
 IR Inten    --     11.0069                10.7365                 8.0284

 - Thermochemistry -
 -------------------
 Temperature   298.150 Kelvin.  Pressure   1.00000 Atm.
 Atom     1 has atomic number  6 and mass  12.00000

 Molecular mass:   106.04186 amu.
 Principal axes and moments of inertia in atomic units:
                           1         2         3
     Eigenvalues --   341.710911152.112921493.82384
           X           -0.37101   0.92863   0.00000
           Y            0.92863   0.37101   0.00000
           Z           -0.00000  -0.00000   1.00000
 This molecule is an asymmetric top.
 Rotational symmetry number  1.
 Rotational temperatures (Kelvin)      0.25347     0.07518     0.05798
 Rotational constants (GHZ):           5.28149     1.56646     1.20814
 Zero-point vibrational energy     287904.8 (Joules/Mol)
                                   68.81091 (Kcal/Mol)
 Warning -- explicit consideration of   6 degrees of freedom as
           vibrations may cause significant error
 Vibrational temperatures:    165.41   316.30   337.08   601.32   637.58
          (Kelvin)            669.87   910.26   954.86  1017.23  1102.82
                             1207.94  1252.62  1367.49  1452.20  1468.94
                             1474.55  1491.79  1504.35  1586.62  1706.29
                             1711.76  1761.22  1922.76  1948.94  2048.91
                             2144.20  2194.87  2334.35  2358.34  2545.73
                             4151.55  4552.54  4567.00  4583.10  4597.10
                             4606.08

 Zero-point correction=                           0.109657 (Hartree/Particle)
 Thermal correction to Energy=                    0.115973
 Thermal correction to Enthalpy=                  0.116917
 Thermal correction to Gibbs Free Energy=         0.079072
 Sum of electronic and zero-point Energies=           -345.599623
 Sum of electronic and thermal Energies=              -345.593307
 Sum of electronic and thermal Enthalpies=            -345.592363
 Sum of electronic and thermal Free Energies=         -345.630208

                     E (Thermal)             CV                S
                      KCal/Mol        Cal/Mol-Kelvin    Cal/Mol-Kelvin
 Total                   72.774             23.838             79.653
 Electronic               0.000              0.000              0.000
 Translational            0.889              2.981             39.893
 Rotational               0.889              2.981             27.866
 Vibrational             70.997             17.877             11.894
 Vibration     1          0.608              1.937              3.183
 Vibration     2          0.647              1.811              1.960
 Vibration     3          0.654              1.788              1.846
 Vibration     4          0.781              1.431              0.899
 Vibration     5          0.803              1.376              0.817
 Vibration     6          0.823              1.326              0.750

 Optimization completed.
    -- Stationary point found.
 Normal termination of Gaussian 16 at Fri Sep 29 02:20:59 2023.
 Gaussian 16:  ES64L-G16RevB.01 20-Dec-2017

 ---------------------------------
 # rohf/gen geom=check guess=check
 ---------------------------------

 ------------------------------
 benzaldehyde, ROHF/cc-pVTZ-F12
 ------------------------------
 Structure from the checkpoint file:  "phcho.chk"
 Charge =  0 Multiplicity = 1

                         Standard orientation:
 ---------------------------------------------------------------------
 Center     Atomic      Atomic             Coordinates (Angstroms)
 Number     Number       Type             X           Y           Z
 ---------------------------------------------------------------------
      1          6           0       -0.000000    0.570349   -0.000000
      2          6           0       -1.042062   -0.362087   -0.000000
      3          6           0       -0.755677   -1.717000    0.000000
      4          6           0        0.569945   -2.150463    0.000000
      5          6           0        1.610462   -1.228236    0.000000
      6          6           0        1.324246    0.130803    0.000000
      7          6           0       -0.283376    2.021378   -0.000000
      8          8           0       -1.386712    2.513644   -0.000000
      9          1           0        0.619689    2.664713   -0.000000
     10          1           0       -2.061528   -0.001936   -0.000000
     11          1           0       -1.559300   -2.440786    0.000000
     12          1           0        0.789618   -3.209733    0.000000
     13          1           0        2.637002   -1.568065    0.000000
     14          1           0        2.126983    0.858191    0.000000
 ---------------------------------------------------------------------

 SCF Done:  E(ROHF) =  -343.570267213     A.U. after   13 cycles

 The electronic state is 1-A'.
 Alpha  occ. eigenvalues --  -20.55351 -11.33409 -11.25987 -11.25730 -11.25332
 Alpha  occ. eigenvalues --  -11.25151 -11.25000 -11.24840  -1.39300  -1.17507
 Alpha  occ. eigenvalues --   -1.05243  -1.03609  -0.89542  -0.84842  -0.79383
 Alpha  occ. eigenvalues --   -0.72237  -0.68075  -0.65576  -0.62257  -0.61753
 Alpha  occ. eigenvalues --   -0.60671  -0.55705  -0.53228  -0.51137  -0.50494
 Alpha  occ. eigenvalues --   -0.42946  -0.35740  -0.35393
 Alpha virt. eigenvalues --    0.04076   0.04529   0.05358   0.05851   0.06504
 Alpha virt. eigenvalues --    0.06757   0.07192   0.08889   0.08955   0.09568
 Alpha virt. eigenvalues --    0.09866   0.10149   0.10283   0.11951   0.12238

 Mulliken charges and spin densities:
               1          2
     1  C    0.164852   0.000000
     2  C   -0.121213   0.000000
     3  C   -0.119197   0.000000
     4  C   -0.146336   0.000000
     5  C   -0.174638   0.000000
     6  C   -0.185355   0.000000
     7  C    0.313651   0.000000
     8  O   -0.597842   0.000000
     9  H    0.102410   0.000000
    10  H    0.184818   0.000000
    11  H    0.147526   0.000000
    12  H    0.148816   0.000000
    13  H    0.145497   0.000000
    14  H    0.137010   0.000000
 Sum of Mulliken charges =  -0.00000   0.00000

 Dipole moment (field-independent basis, Debye):
    X=              2.6485    Y=             -2.6321    Z=              0.0000  Tot=              3.7340
 Quadrupole moment (field-independent basis, Debye-Ang):
   XX=            -45.2116   YY=            -47.9698   ZZ=            -50.1622
   XY=              7.4812   XZ=              0.0000   YZ=              0.0000

 Normal termination of Gaussian 16 at Fri Sep 29 02:35:28 2023.
