 Gaussian 16, Revision B.01,

 ---------------------------------------
 # b3lyp/gen opt freq CPHF(Grid=OneStep)
 ---------------------------------------

 ----------------------------
 chlorobenzene, B3LYP/pcseg-2
 ----------------------------
 Symbolic Z-matrix:
 Charge =  0 Multiplicity = 1

 SCF Done:  E(RB3LYP) =  -691.974556791     A.U. after   13 cycles
 Optimization completed.
    -- Stationary point found.
 Normal termination of Gaussian 16 at Sat Sep 30 22:47:32 2023.

 ------------------------------------------------------------------
 #N Geom=AllCheck Guess=TCheck SCRF=Check GenChk RB3LYP/ChkBas Freq
 ------------------------------------------------------------------

 Structure from the checkpoint file:  "phcl.chk"
 ----------------------------
 chlorobenzene, B3LYP/pcseg-2
 ----------------------------
 Charge =  0 Multiplicity = 1

 SCF Done:  E(RB3LYP) =  -691.974556791     A.U. after    1 cycles

  Exact polarizability:  44.866   0.000  83.077  -0.000   0.000 106.368
 Approx polarizability:  70.301   0.000 139.260  -0.000  -0.000 166.209

                      1                      2                      3
                     B1                     B2                     A1
 Frequencies --    187.1538               296.5596               416.2226
 Red. masses --      5.1139                 5.7298                11.6715
 Frc consts  --      0.1055                 0.2969                 1.1913
 IR Inten    --      0.1608                 0.0830                 4.6605

                      4                      5                      6
                     A2                     B1                     B2
 Frequencies --    418.1930               482.1190               630.4024
 Red. masses --      2.9118                 3.1852                 6.4474
 Frc consts  --      0.3000                 0.4362                 1.5096
 IR Inten    --      0.0000                 9.6855                 0.2524

                      7                      8                      9
                     B1                     A1                     B1
 Frequencies --    704.5898               712.6130               760.9589
 Red. masses --      2.2931                 6.8303                 1.4899
 Frc consts  --      0.6707                 2.0436                 0.5083
 IR Inten    --     25.2427                25.3392                57.1339

                     10                     11                     12
                     A2                     B1                     A2
 Frequencies --    848.8853               928.9158               991.1536
 Red. masses --      1.2471                 1.3786                 1.3654
 Frc consts  --      0.5295                 0.7009                 0.7903
 IR Inten    --      0.0000                 2.2141                 0.0000

                     13                     14                     15
                     B1                     A1                     A1
 Frequencies --   1009.8116              1021.5213              1046.0281
 Red. masses --      1.2935                 6.2787                 2.8791
 Frc consts  --      0.7771                 3.8603                 1.8561
 IR Inten    --      0.0254                 2.1882                18.1541

                     16                     17                     18
                     B2                     A1                     B2
 Frequencies --   1098.3510              1100.9618              1184.1174
 Red. masses --      1.5639                 2.8245                 1.1219
 Frc consts  --      1.1116                 2.0171                 0.9268
 IR Inten    --      4.9651                44.1085                 0.0491

                     19                     20                     21
                     A1                     B2                     B2
 Frequencies --   1198.9939              1317.3075              1348.2837
 Red. masses --      1.1426                 4.1261                 1.5379
 Frc consts  --      0.9678                 4.2185                 1.6472
 IR Inten    --      0.0134                 0.0669                 0.4188

                     22                     23                     24
                     B2                     A1                     A1
 Frequencies --   1481.5545              1513.4024              1622.9257
 Red. masses --      2.1065                 2.0803                 5.3826
 Frc consts  --      2.7242                 2.8073                 8.3529
 IR Inten    --      5.0220                43.1333                24.6399

                     25                     26                     27
                     B2                     A1                     B2
 Frequencies --   1625.1491              3174.9705              3183.5707
 Red. masses --      5.8081                 1.0857                 1.0893
 Frc consts  --      9.0379                 6.4483                 6.5045
 IR Inten    --      2.7550                 0.0751                 8.3527

                     28                     29                     30
                     A1                     B2                     A1
 Frequencies --   3196.4836              3207.0063              3209.0806
 Red. masses --      1.0935                 1.0934                 1.0957
 Frc consts  --      6.5830                 6.6256                 6.6479
 IR Inten    --     12.7871                 5.3085                 0.8100

 - Thermochemistry -
 -------------------
 Temperature   298.150 Kelvin.  Pressure   1.00000 Atm.
 Atom     1 has atomic number 17 and mass  34.96885

 Molecular mass:   112.00798 amu.
 Principal axes and moments of inertia in atomic units:
                           1         2         3
     Eigenvalues --   315.272071149.214901464.48697
           X            0.00000  -0.00000   1.00000
           Y            0.00000   1.00000  -0.00000
           Z            1.00000  -0.00000  -0.00000
 This molecule is an asymmetric top.
 Rotational symmetry number  2.
 Rotational temperatures (Kelvin)      0.27473     0.07537     0.05914
 Rotational constants (GHZ):           5.72439     1.57041     1.23234
 Zero-point vibrational energy     238758.4 (Joules/Mol)
                                   57.06463 (Kcal/Mol)
 Warning -- explicit consideration of   5 degrees of freedom as
           vibrations may cause significant error
 Vibrational temperatures:    269.27   426.68   598.85   601.69   693.66
          (Kelvin)            907.01  1013.75  1025.29  1094.85  1221.36
                             1336.50  1426.05  1452.89  1469.74  1505.00
                             1580.28  1584.04  1703.68  1725.08  1895.31
                             1939.88  2131.63  2177.45  2335.03  2338.23
                             4568.07  4580.45  4599.03  4614.17  4617.15

 Zero-point correction=                           0.090938 (Hartree/Particle)
 Thermal correction to Energy=                    0.096425
 Thermal correction to Enthalpy=                  0.097369
 Thermal correction to Gibbs Free Energy=         0.061821
 Sum of electronic and zero-point Energies=           -691.883619
 Sum of electronic and thermal Energies=              -691.878132
 Sum of electronic and thermal Enthalpies=            -691.877187
 Sum of electronic and thermal Free Energies=         -691.912736

                     E (Thermal)             CV                S
                      KCal/Mol        Cal/Mol-Kelvin    Cal/Mol-Kelvin
 Total                   60.508             20.934             74.818
 Electronic               0.000              0.000              0.000
 Translational            0.889              2.981             40.056
 Rotational               0.889              2.981             26.386
 Vibrational             58.730             14.972              8.375
 Vibration     1          0.632              1.857              2.256
 Vibration     2          0.690              1.680              1.436
 Vibration     3          0.779              1.435              0.905
 Vibration     4          0.781              1.431              0.898
 Vibration     5          0.838              1.290              0.704

 Optimization completed.
    -- Stationary point found.
 Normal termination of Gaussian 16 at Sat Sep 30 22:58:10 2023.
 Gaussian 16:  ES64L-G16RevB.01 20-Dec-2017

 ---------------------------------
 # rohf/gen geom=check guess=check
 ---------------------------------

 -------------------------------
 chlorobenzene, ROHF/cc-pVTZ-F12
 -------------------------------
 Structure from the checkpoint file:  "phcl.chk"
 Charge =  0 Multiplicity = 1

                         Standard orientation:
 ---------------------------------------------------------------------
 Center     Atomic      Atomic             Coordinates (Angstroms)
 Number     Number       Type             X           Y           Z
 ---------------------------------------------------------------------
      1         17           0        0.000000    0.000000    2.254235
      2          6           0        0.000000    0.000000    0.502974
      3          6           0       -0.000000    1.209983   -0.177547
      4          6           0       -0.000000   -1.209983   -0.177547
      5          6           0       -0.000000    1.202094   -1.567571
      6          6           0       -0.000000   -1.202094   -1.567571
      7          6           0        0.000000   -0.000000   -2.265310
      8          1           0       -0.000000    2.138969    0.373109
      9          1           0       -0.000000   -2.138969    0.373109
     10          1           0       -0.000000    2.141644   -2.103190
     11          1           0       -0.000000   -2.141644   -2.103190
     12          1           0        0.000000   -0.000000   -3.346394
 ---------------------------------------------------------------------

 SCF Done:  E(ROHF) =  -689.733502504     A.U. after   12 cycles

 The electronic state is 1-A1.
 Alpha  occ. eigenvalues -- -104.83864 -11.30398 -11.24979 -11.24979 -11.24853
 Alpha  occ. eigenvalues --  -11.24838 -11.24458 -10.56370  -8.03072  -8.02917
 Alpha  occ. eigenvalues --   -8.02911  -1.19098  -1.11891  -1.03410  -0.99901
 Alpha  occ. eigenvalues --   -0.84791  -0.82189  -0.71389  -0.64967  -0.64861
 Alpha  occ. eigenvalues --   -0.60550  -0.58984  -0.54581  -0.51821  -0.51178
 Alpha  occ. eigenvalues --   -0.47031  -0.45496  -0.35363  -0.33885
 Alpha virt. eigenvalues --    0.04540   0.04997   0.05372   0.06962   0.07089
 Alpha virt. eigenvalues --    0.07777   0.09163   0.09230   0.09247   0.10288
 Alpha virt. eigenvalues --    0.11134   0.11789   0.11948   0.12234   0.12366

 Mulliken charges and spin densities:
               1          2
     1  Cl  -0.121454   0.000000
     2  C    0.102730   0.000000
     3  C   -0.124651   0.000000
     4  C   -0.124651   0.000000
     5  C   -0.165133   0.000000
     6  C   -0.165133   0.000000
     7  C   -0.169827   0.000000
     8  H    0.160923   0.000000
     9  H    0.160923   0.000000
    10  H    0.150080   0.000000
    11  H    0.150080   0.000000
    12  H    0.146113   0.000000
 Sum of Mulliken charges =  -0.00000   0.00000

 Dipole moment (field-independent basis, Debye):
    X=             -0.0000    Y=              0.0000    Z=             -1.9779  Tot=              1.9779
 Quadrupole moment (field-independent basis, Debye-Ang):
   XX=            -52.2300   YY=            -42.4852   ZZ=            -46.7292
   XY=              0.0000   XZ=              0.0000   YZ=              0.0000

 Normal termination of Gaussian 16 at Sat Sep 30 23:03:03 2023.
