 Gaussian 16, Revision B.01,

 ---------------------------------------
 # b3lyp/gen opt freq CPHF(Grid=OneStep)
 ---------------------------------------

 ----------------------------------
 1,4-dichlorobenzene, B3LYP/pcseg-2
 ----------------------------------
 Symbolic Z-matrix:
 Charge =  0 Multiplicity = 1

 SCF Done:  E(RB3LYP) =  -1151.60789751     A.U. after   12 cycles
 Optimization completed.
    -- Stationary point found.
 Normal termination of Gaussian 16 at Sun Oct  1 00:23:36 2023.

 ------------------------------------------------------------------
 #N Geom=AllCheck Guess=TCheck SCRF=Check GenChk RB3LYP/ChkBas Freq
 ------------------------------------------------------------------

 Structure from the checkpoint file:  "phcl2.chk"
 ----------------------------------
 1,4-dichlorobenzene, B3LYP/pcseg-2
 ----------------------------------
 Charge =  0 Multiplicity = 1

 SCF Done:  E(RB3LYP) =  -1151.60789751     A.U. after    1 cycles

  Exact polarizability:  50.546   0.000  87.734   0.000  -0.000 137.093
 Approx polarizability:  80.842   0.000 150.342  -0.000   0.000 205.566

                      1                      2                      3
                     B3U                    B2U                    B2G
 Frequencies --    101.4395               220.2492               296.4155
 Red. masses --     12.1743                12.4465                 7.3832
 Frc consts  --      0.0738                 0.3557                 0.3822
 IR Inten    --      0.4442                 0.8109                 0.0000

                      4                      5                      6
                     AG                     B3G                    AU
 Frequencies --    330.0629               355.7678               422.3190
 Red. masses --     27.2570                 4.8263                 2.9859
 Frc consts  --      1.7495                 0.3599                 0.3138
 IR Inten    --      0.0000                 0.0000                 0.0000

                      7                      8                      9
                     B3U                    B1U                    B3G
 Frequencies --    498.2193               543.0925               643.4037
 Red. masses --      2.7956                 9.5969                 7.1636
 Frc consts  --      0.4088                 1.6677                 1.7472
 IR Inten    --     21.6324                37.4289                 0.0000

                     10                     11                     12
                     B2G                    AG                     B1G
 Frequencies --    712.0106               757.1975               832.5260
 Red. masses --      3.9054                 7.2641                 1.2460
 Frc consts  --      1.1665                 2.4539                 0.5088
 IR Inten    --      0.0000                 0.0000                 0.0000

                     13                     14                     15
                     B3U                    B2G                    AU
 Frequencies --    844.3978               965.2757               983.2400
 Red. masses --      1.5028                 1.3252                 1.3502
 Frc consts  --      0.6313                 0.7275                 0.7690
 IR Inten    --     49.6625                 0.0000                 0.0000

                     16                     17                     18
                     B1U                    AG                     B1U
 Frequencies --   1032.2425              1102.7787              1102.9994
 Red. masses --      4.3979                 7.9074                 2.1466
 Frc consts  --      2.7610                 5.6658                 1.5387
 IR Inten    --     48.8979                 0.0000               110.8029

                     19                     20                     21
                     B2U                    AG                     B2U
 Frequencies --   1125.9694              1197.8034              1303.1649
 Red. masses --      1.3392                 1.1447                11.6313
 Frc consts  --      1.0003                 0.9676                11.6379
 IR Inten    --      5.6003                 0.0000                 0.2407

                     22                     23                     24
                     B3G                    B2U                    B1U
 Frequencies --   1323.1791              1422.7131              1510.2378
 Red. masses --      1.2636                 2.8224                 2.1507
 Frc consts  --      1.3034                 3.3659                 2.8902
 IR Inten    --      0.0000                 5.3057               101.6799

                     25                     26                     27
                     B3G                    AG                     B1U
 Frequencies --   1610.5800              1614.2651              3200.8628
 Red. masses --      7.1087                 5.6881                 1.0888
 Frc consts  --     10.8643                 8.7331                 6.5724
 IR Inten    --      0.0000                 0.0000                 1.1388

                     28                     29                     30
                     B3G                    B2U                    AG
 Frequencies --   3201.9243              3213.8117              3215.3303
 Red. masses --      1.0886                 1.0947                 1.0955
 Frc consts  --      6.5759                 6.6615                 6.6726
 IR Inten    --      0.0000                 1.1744                 0.0000

 - Thermochemistry -
 -------------------
 Temperature   298.150 Kelvin.  Pressure   1.00000 Atm.
 Atom     1 has atomic number  6 and mass  12.00000

 Molecular mass:   145.96901 amu.
 Principal axes and moments of inertia in atomic units:
                           1         2         3
     Eigenvalues --   315.933722709.813193025.74692
           X           -0.00000  -0.00000   1.00000
           Y           -0.00000   1.00000   0.00000
           Z            1.00000   0.00000   0.00000
 This molecule is an asymmetric top.
 Rotational symmetry number  4.
 Rotational temperatures (Kelvin)      0.27415     0.03196     0.02863
 Rotational constants (GHZ):           5.71240     0.66600     0.59646
 Zero-point vibrational energy     213434.6 (Joules/Mol)
                                   51.01210 (Kcal/Mol)
 Warning -- explicit consideration of   8 degrees of freedom as
           vibrations may cause significant error
 Vibrational temperatures:    145.95   316.89   426.48   474.89   511.87
          (Kelvin)            607.62   716.83   781.39   925.71  1024.42
                             1089.44  1197.82  1214.90  1388.82  1414.66
                             1485.17  1586.65  1586.97  1620.02  1723.37
                             1874.96  1903.76  2046.97  2172.90  2317.27
                             2322.57  4605.33  4606.85  4623.96  4626.14

 Zero-point correction=                           0.081293 (Hartree/Particle)
 Thermal correction to Energy=                    0.087973
 Thermal correction to Enthalpy=                  0.088917
 Thermal correction to Gibbs Free Energy=         0.050605
 Sum of electronic and zero-point Energies=          -1151.526605
 Sum of electronic and thermal Energies=             -1151.519924
 Sum of electronic and thermal Enthalpies=           -1151.518980
 Sum of electronic and thermal Free Energies=        -1151.557293

                     E (Thermal)             CV                S
                      KCal/Mol        Cal/Mol-Kelvin    Cal/Mol-Kelvin
 Total                   55.204             24.791             80.635
 Electronic               0.000              0.000              0.000
 Translational            0.889              2.981             40.845
 Rotational               0.889              2.981             26.584
 Vibrational             53.427             18.829             13.205
 Vibration     1          0.604              1.948              3.426
 Vibration     2          0.647              1.810              1.957
 Vibration     3          0.690              1.680              1.437
 Vibration     4          0.713              1.615              1.260
 Vibration     5          0.731              1.563              1.141
 Vibration     6          0.785              1.422              0.884
 Vibration     7          0.854              1.254              0.663
 Vibration     8          0.898              1.155              0.559

 Optimization completed.
    -- Stationary point found.
 Normal termination of Gaussian 16 at Sun Oct  1 00:32:48 2023.
 Gaussian 16:  ES64L-G16RevB.01 20-Dec-2017

 ---------------------------------
 # rohf/gen geom=check guess=check
 ---------------------------------

 -------------------------------------
 1,4-dichlorobenzene, ROHF/cc-pVTZ-F12
 -------------------------------------
 Structure from the checkpoint file:  "phcl2.chk"
 Charge =  0 Multiplicity = 1

                         Standard orientation:
 ---------------------------------------------------------------------
 Center     Atomic      Atomic             Coordinates (Angstroms)
 Number     Number       Type             X           Y           Z
 ---------------------------------------------------------------------
      1          6           0       -0.000000    0.000000    1.378952
      2          6           0        0.000000    0.000000   -1.378952
      3          6           0       -0.000000    1.207686    0.694611
      4          6           0       -0.000000   -1.207686    0.694611
      5          6           0       -0.000000   -1.207686   -0.694611
      6          6           0        0.000000    1.207686   -0.694611
      7         17           0       -0.000000    0.000000    3.126949
      8         17           0        0.000000    0.000000   -3.126949
      9          1           0       -0.000000    2.140026    1.239339
     10          1           0       -0.000000   -2.140026    1.239339
     11          1           0       -0.000000   -2.140026   -1.239339
     12          1           0        0.000000    2.140026   -1.239339
 ---------------------------------------------------------------------

 SCF Done:  E(ROHF) =  -1148.67170010     A.U. after   12 cycles

 The electronic state is 1-AG.
 Alpha  occ. eigenvalues -- -104.84776-104.84776 -11.31448 -11.31446 -11.26472
 Alpha  occ. eigenvalues --  -11.26467 -11.26345 -11.26344 -10.57278 -10.57278
 Alpha  occ. eigenvalues --   -8.03981  -8.03981  -8.03823  -8.03823  -8.03817
 Alpha  occ. eigenvalues --   -8.03817  -1.21420  -1.16450  -1.10043  -1.05114
 Alpha  occ. eigenvalues --   -0.98499  -0.86936  -0.82321  -0.70629  -0.67685
 Alpha  occ. eigenvalues --   -0.66017  -0.62103  -0.59016  -0.56975  -0.54127
 Alpha  occ. eigenvalues --   -0.52652  -0.51617  -0.46680  -0.46159  -0.45745
 Alpha  occ. eigenvalues --   -0.36873  -0.34012
 Alpha virt. eigenvalues --    0.04473   0.04890   0.05312   0.06754   0.07043
 Alpha virt. eigenvalues --    0.07303   0.08240   0.09060   0.09916   0.10141
 Alpha virt. eigenvalues --    0.10351   0.10779   0.11289   0.11983   0.12485

 Mulliken charges and spin densities:
               1          2
     1  C    0.042797   0.000000
     2  C    0.042797   0.000000
     3  C   -0.134532   0.000000
     4  C   -0.134532   0.000000
     5  C   -0.134532   0.000000
     6  C   -0.134532   0.000000
     7  Cl  -0.109287   0.000000
     8  Cl  -0.109287   0.000000
     9  H    0.167777   0.000000
    10  H    0.167777   0.000000
    11  H    0.167777   0.000000
    12  H    0.167777   0.000000
 Sum of Mulliken charges =  -0.00000   0.00000

 Dipole moment (field-independent basis, Debye):
    X=             -0.0000    Y=             -0.0000    Z=             -0.0000  Tot=              0.0000
 Quadrupole moment (field-independent basis, Debye-Ang):
   XX=            -63.6052   YY=            -53.0111   ZZ=            -67.5113
   XY=              0.0000   XZ=              0.0000   YZ=             -0.0000

 Normal termination of Gaussian 16 at Sun Oct  1 00:36:14 2023.
