 Gaussian 16, Revision B.01,
 Gaussian 16:  ES64L-G16RevB.01 20-Dec-2017

 --------------------
 # b3lyp/gen opt freq
 --------------------

 ----------------------------
 chlorobenzene, B3LYP/pcseg-2
 ----------------------------
 Symbolic Z-matrix:
 Charge =  0 Multiplicity = 1

 SCF Done:  E(RB3LYP) =  -691.974478061     A.U. after   13 cycles
 SCF Done:  E(RB3LYP) =  -691.974556792     A.U. after    8 cycles
 Optimization completed.
    -- Stationary point found.
 Normal termination of Gaussian 16 at Wed Jun 15 11:52:41 2022.

 ------------------------------------------------------------------
 #N Geom=AllCheck Guess=TCheck SCRF=Check GenChk RB3LYP/ChkBas Freq
 ------------------------------------------------------------------

 Structure from the checkpoint file:  "/wrk/irikura/Gau-18223.chk"
 ----------------------------
 chlorobenzene, B3LYP/pcseg-2
 ----------------------------
 Charge =  0 Multiplicity = 1

                         Standard orientation:
 ---------------------------------------------------------------------
 Center     Atomic      Atomic             Coordinates (Angstroms)
 Number     Number       Type             X           Y           Z
 ---------------------------------------------------------------------
      1         17           0        0.000000    0.000000    2.254235
      2          6           0        0.000000    0.000000    0.502974
      3          6           0       -0.000000    1.209983   -0.177547
      4          6           0       -0.000000   -1.209983   -0.177547
      5          6           0       -0.000000    1.202094   -1.567571
      6          6           0       -0.000000   -1.202094   -1.567571
      7          6           0       -0.000000   -0.000000   -2.265310
      8          1           0       -0.000000    2.138969    0.373109
      9          1           0       -0.000000   -2.138969    0.373109
     10          1           0       -0.000000    2.141644   -2.103190
     11          1           0       -0.000000   -2.141644   -2.103190
     12          1           0       -0.000000   -0.000000   -3.346394
 ---------------------------------------------------------------------

 SCF Done:  E(RB3LYP) =  -691.974556792     A.U. after    1 cycles

 The electronic state is 1-A1.
 Alpha  occ. eigenvalues -- -101.51478 -10.24165 -10.19156 -10.19156 -10.19068
 Alpha  occ. eigenvalues --  -10.19064 -10.18687  -9.45996  -7.22145  -7.21293
 Alpha  occ. eigenvalues --   -7.21256  -0.89830  -0.84355  -0.76710  -0.74215
 Alpha  occ. eigenvalues --   -0.62804  -0.60924  -0.53544  -0.47855  -0.47507
 Alpha  occ. eigenvalues --   -0.44259  -0.43943  -0.40603  -0.37140  -0.37013
 Alpha  occ. eigenvalues --   -0.34221  -0.31852  -0.27490  -0.25671
 Alpha virt. eigenvalues --   -0.03028  -0.02815   0.00446   0.03502   0.03594
 Alpha virt. eigenvalues --    0.05127   0.07248   0.07377   0.11929   0.12638
 Alpha virt. eigenvalues --    0.15360   0.15974   0.16539   0.19098   0.19621

 Mulliken charges:
               1
     1  Cl  -0.137987
     2  C    0.126751
     3  C   -0.032537
     4  C   -0.032537
     5  C   -0.036734
     6  C   -0.036734
     7  C   -0.004720
     8  H    0.038111
     9  H    0.038111
    10  H    0.026152
    11  H    0.026152
    12  H    0.025972
 Sum of Mulliken charges =   0.00000

 Dipole moment (field-independent basis, Debye):
    X=              0.0000    Y=             -0.0000    Z=             -1.7757  Tot=              1.7757
 Quadrupole moment (field-independent basis, Debye-Ang):
   XX=            -51.3870   YY=            -42.7921   ZZ=            -46.5740
   XY=              0.0000   XZ=              0.0000   YZ=             -0.0000

  Exact polarizability:  44.865  -0.000  83.078   0.000   0.000 106.367
 Approx polarizability:  70.301   0.000 139.260  -0.000  -0.000 166.209

                      1                      2                      3
                     B1                     B2                     A1
 Frequencies --    187.1583               296.5698               416.2214
 Red. masses --      5.1137                 5.7298                11.6716
 Frc consts  --      0.1055                 0.2969                 1.1913
 IR Inten    --      0.1607                 0.0830                 4.6596

                      4                      5                      6
                     A2                     B1                     B2
 Frequencies --    418.1930               482.1217               630.4042
 Red. masses --      2.9118                 3.1852                 6.4474
 Frc consts  --      0.3000                 0.4362                 1.5096
 IR Inten    --      0.0000                 9.6869                 0.2524

                      7                      8                      9
                     B1                     A1                     B1
 Frequencies --    704.5884               712.6092               760.9574
 Red. masses --      2.2931                 6.8303                 1.4899
 Frc consts  --      0.6707                 2.0436                 0.5083
 IR Inten    --     25.2431                25.3356                57.1329

                     10                     11                     12
                     A2                     B1                     A2
 Frequencies --    848.8766               928.9140               991.1542
 Red. masses --      1.2471                 1.3786                 1.3654
 Frc consts  --      0.5295                 0.7009                 0.7903
 IR Inten    --      0.0000                 2.2154                 0.0000

                     13                     14                     15
                     B1                     A1                     A1
 Frequencies --   1009.8110              1021.5215              1046.0251
 Red. masses --      1.2935                 6.2785                 2.8791
 Frc consts  --      0.7771                 3.8601                 1.8560
 IR Inten    --      0.0254                 2.1862                18.1502

                     16                     17                     18
                     B2                     A1                     B2
 Frequencies --   1098.3484              1100.9534              1184.1148
 Red. masses --      1.5639                 2.8246                 1.1219
 Frc consts  --      1.1116                 2.0172                 0.9268
 IR Inten    --      4.9647                44.1057                 0.0492

                     19                     20                     21
                     A1                     B2                     B2
 Frequencies --   1198.9916              1317.3075              1348.2779
 Red. masses --      1.1426                 4.1257                 1.5379
 Frc consts  --      0.9678                 4.2182                 1.6472
 IR Inten    --      0.0132                 0.0667                 0.4192

                     22                     23                     24
                     B2                     A1                     A1
 Frequencies --   1481.5520              1513.3950              1622.9294
 Red. masses --      2.1065                 2.0803                 5.3826
 Frc consts  --      2.7242                 2.8072                 8.3530
 IR Inten    --      5.0240                43.1457                24.6383

                     25                     26                     27
                     B2                     A1                     B2
 Frequencies --   1625.1502              3174.9674              3183.5688
 Red. masses --      5.8082                 1.0857                 1.0893
 Frc consts  --      9.0381                 6.4483                 6.5045
 IR Inten    --      2.7551                 0.0751                 8.3522

                     28                     29                     30
                     A1                     B2                     A1
 Frequencies --   3196.4784              3206.9948              3209.0709
 Red. masses --      1.0935                 1.0934                 1.0957
 Frc consts  --      6.5830                 6.6255                 6.6479
 IR Inten    --     12.7925                 5.3091                 0.8105

 - Thermochemistry -
 -------------------
 Temperature   298.150 Kelvin.  Pressure   1.00000 Atm.
 Atom     1 has atomic number 17 and mass  34.96885

 Molecular mass:   112.00798 amu.
 Principal axes and moments of inertia in atomic units:
                           1         2         3
     Eigenvalues --   315.272041149.214791464.48683
           X            0.00000   0.00000   1.00000
           Y            0.00000   1.00000  -0.00000
           Z            1.00000   0.00000   0.00000
 This molecule is an asymmetric top.
 Rotational symmetry number  2.
 Rotational temperatures (Kelvin)      0.27473     0.07537     0.05914
 Rotational constants (GHZ):           5.72439     1.57041     1.23234
 Zero-point vibrational energy     238758.0 (Joules/Mol)
                                   57.06454 (Kcal/Mol)
 Warning -- explicit consideration of   5 degrees of freedom as
           vibrations may cause significant error
 Vibrational temperatures:    269.28   426.70   598.85   601.69   693.67
          (Kelvin)            907.01  1013.75  1025.29  1094.85  1221.34
                             1336.50  1426.05  1452.89  1469.74  1505.00
                             1580.28  1584.03  1703.68  1725.08  1895.31
                             1939.87  2131.62  2177.44  2335.03  2338.23
                             4568.07  4580.45  4599.02  4614.15  4617.14

 Zero-point correction=                           0.090938 (Hartree/Particle)
 Thermal correction to Energy=                    0.096425
 Thermal correction to Enthalpy=                  0.097369
 Thermal correction to Gibbs Free Energy=         0.061821
 Sum of electronic and zero-point Energies=           -691.883619
 Sum of electronic and thermal Energies=              -691.878132
 Sum of electronic and thermal Enthalpies=            -691.877188
 Sum of electronic and thermal Free Energies=         -691.912736

                     E (Thermal)             CV                S
                      KCal/Mol        Cal/Mol-Kelvin    Cal/Mol-Kelvin
 Total                   60.508             20.934             74.818
 Electronic               0.000              0.000              0.000
 Translational            0.889              2.981             40.056
 Rotational               0.889              2.981             26.386
 Vibrational             58.730             14.972              8.375
 Vibration     1          0.632              1.857              2.256
 Vibration     2          0.690              1.680              1.436
 Vibration     3          0.779              1.435              0.905
 Vibration     4          0.781              1.431              0.898
 Vibration     5          0.838              1.290              0.704

 Optimization completed.
    -- Stationary point found.
 Normal termination of Gaussian 16 at Wed Jun 15 11:55:01 2022.
