 Gaussian 16, Revision B.01,
 Gaussian 16:  ES64L-G16RevB.01 20-Dec-2017

 --------------------
 # b3lyp/gen opt freq
 --------------------

 ----------------------------------
 1,4-dichlorobenzene, B3LYP/pcseg-2
 ----------------------------------
 Symbolic Z-matrix:
 Charge =  0 Multiplicity = 1

 SCF Done:  E(RB3LYP) =  -1151.60774136     A.U. after   12 cycles
 SCF Done:  E(RB3LYP) =  -1151.60789051     A.U. after   10 cycles
 SCF Done:  E(RB3LYP) =  -1151.60789751     A.U. after    7 cycles
 Optimization completed.
    -- Stationary point found.
 Normal termination of Gaussian 16 at Tue Mar  1 13:13:31 2022.

 ------------------------------------------------------------------
 #N Geom=AllCheck Guess=TCheck SCRF=Check GenChk RB3LYP/ChkBas Freq
 ------------------------------------------------------------------

 Structure from the checkpoint file:  "/wrk/irikura/Gau-19177.chk"
 ----------------------------------
 1,4-dichlorobenzene, B3LYP/pcseg-2
 ----------------------------------
 Charge =  0 Multiplicity = 1

                         Standard orientation:
 ---------------------------------------------------------------------
 Center     Atomic      Atomic             Coordinates (Angstroms)
 Number     Number       Type             X           Y           Z
 ---------------------------------------------------------------------
      1          6           0       -0.000000    0.000000    1.378952
      2          6           0        0.000000    0.000000   -1.378952
      3          6           0       -0.000000    1.207686    0.694611
      4          6           0       -0.000000   -1.207686    0.694611
      5          6           0       -0.000000   -1.207686   -0.694611
      6          6           0        0.000000    1.207686   -0.694611
      7         17           0       -0.000000    0.000000    3.126949
      8         17           0        0.000000    0.000000   -3.126949
      9          1           0       -0.000000    2.140026    1.239339
     10          1           0       -0.000000   -2.140026    1.239339
     11          1           0       -0.000000   -2.140026   -1.239339
     12          1           0        0.000000    2.140026   -1.239339
 ---------------------------------------------------------------------

 SCF Done:  E(RB3LYP) =  -1151.60789751     A.U. after    1 cycles

 The electronic state is 1-AG.
 Alpha  occ. eigenvalues -- -101.52313-101.52313 -10.25100 -10.25099 -10.20497
 Alpha  occ. eigenvalues --  -10.20496 -10.20436 -10.20436  -9.46824  -9.46824
 Alpha  occ. eigenvalues --   -7.22981  -7.22981  -7.22118  -7.22118  -7.22081
 Alpha  occ. eigenvalues --   -7.22081  -0.91801  -0.88586  -0.83362  -0.78237
 Alpha  occ. eigenvalues --   -0.73406  -0.64696  -0.61391  -0.53588  -0.50257
 Alpha  occ. eigenvalues --   -0.48585  -0.45663  -0.44985  -0.42589  -0.39221
 Alpha  occ. eigenvalues --   -0.39041  -0.37903  -0.32916  -0.32787  -0.32449
 Alpha  occ. eigenvalues --   -0.28818  -0.25558
 Alpha virt. eigenvalues --   -0.04327  -0.03906  -0.00575   0.02554   0.03297
 Alpha virt. eigenvalues --    0.04350   0.05061   0.07639   0.09497   0.10469
 Alpha virt. eigenvalues --    0.14532   0.15310   0.15379   0.16675   0.18244

 Mulliken charges:
               1
     1  C    0.134742
     2  C    0.134742
     3  C   -0.046572
     4  C   -0.046572
     5  C   -0.046572
     6  C   -0.046572
     7  Cl  -0.127339
     8  Cl  -0.127339
     9  H    0.042871
    10  H    0.042871
    11  H    0.042871
    12  H    0.042871
 Sum of Mulliken charges =  -0.00000

 Dipole moment (field-independent basis, Debye):
    X=             -0.0000    Y=             -0.0000    Z=             -0.0000  Tot=              0.0000
 Quadrupole moment (field-independent basis, Debye-Ang):
   XX=            -62.7883   YY=            -53.3865   ZZ=            -66.3453
   XY=              0.0000   XZ=              0.0000   YZ=              0.0000

  Exact polarizability:  50.544   0.000  87.735   0.000  -0.000 137.091
 Approx polarizability:  80.842   0.000 150.342  -0.000   0.000 205.566

                      1                      2                      3
                     B3U                    B2U                    B2G
 Frequencies --    101.4506               220.2615               296.4238
 Red. masses --     12.1740                12.4464                 7.3831
 Frc consts  --      0.0738                 0.3558                 0.3822
 IR Inten    --      0.4443                 0.8111                 0.0000

                      4                      5                      6
                     AG                     B3G                    AU
 Frequencies --    330.0625               355.7778               422.3194
 Red. masses --     27.2572                 4.8263                 2.9859
 Frc consts  --      1.7495                 0.3599                 0.3138
 IR Inten    --      0.0000                 0.0000                 0.0000

                      7                      8                      9
                     B3U                    B1U                    B3G
 Frequencies --    498.2235               543.0908               643.4047
 Red. masses --      2.7955                 9.5971                 7.1636
 Frc consts  --      0.4088                 1.6678                 1.7472
 IR Inten    --     21.6341                37.4227                 0.0000

                     10                     11                     12
                     B2G                    AG                     B1G
 Frequencies --    712.0108               757.1928               832.5161
 Red. masses --      3.9054                 7.2639                 1.2460
 Frc consts  --      1.1665                 2.4538                 0.5088
 IR Inten    --      0.0000                 0.0000                 0.0000

                     13                     14                     15
                     B3U                    B2G                    AU
 Frequencies --    844.3984               965.2740               983.2403
 Red. masses --      1.5028                 1.3252                 1.3501
 Frc consts  --      0.6313                 0.7275                 0.7690
 IR Inten    --     49.6655                 0.0000                 0.0000

                     16                     17                     18
                     B1U                    AG                     B1U
 Frequencies --   1032.2442              1102.7735              1102.9877
 Red. masses --      4.3976                 7.9066                 2.1467
 Frc consts  --      2.7608                 5.6652                 1.5387
 IR Inten    --     48.8821                 0.0000               110.7907

                     19                     20                     21
                     B2U                    AG                     B2U
 Frequencies --   1125.9637              1197.7983              1303.1654
 Red. masses --      1.3392                 1.1447                11.6313
 Frc consts  --      1.0003                 0.9676                11.6380
 IR Inten    --      5.6012                 0.0000                 0.2403

                     22                     23                     24
                     B3G                    B2U                    B1U
 Frequencies --   1323.1710              1422.7054              1510.2299
 Red. masses --      1.2635                 2.8225                 2.1507
 Frc consts  --      1.3034                 3.3659                 2.8902
 IR Inten    --      0.0000                 5.3086               101.7041

                     25                     26                     27
                     B3G                    AG                     B1U
 Frequencies --   1610.5821              1614.2689              3200.8502
 Red. masses --      7.1088                 5.6881                 1.0888
 Frc consts  --     10.8645                 8.7332                 6.5723
 IR Inten    --      0.0000                 0.0000                 1.1436

                     28                     29                     30
                     B3G                    B2U                    AG
 Frequencies --   3201.9123              3213.8004              3215.3189
 Red. masses --      1.0886                 1.0947                 1.0955
 Frc consts  --      6.5759                 6.6615                 6.6726
 IR Inten    --      0.0000                 1.1734                 0.0000

 - Thermochemistry -
 -------------------
 Temperature   298.150 Kelvin.  Pressure   1.00000 Atm.
 Atom     1 has atomic number  6 and mass  12.00000

 Molecular mass:   145.96901 amu.
 Principal axes and moments of inertia in atomic units:
                           1         2         3
     Eigenvalues --   315.933782709.812503025.74628
           X           -0.00000  -0.00000   1.00000
           Y            0.00000   1.00000   0.00000
           Z            1.00000  -0.00000   0.00000
 This molecule is an asymmetric top.
 Rotational symmetry number  4.
 Rotational temperatures (Kelvin)      0.27415     0.03196     0.02863
 Rotational constants (GHZ):           5.71240     0.66600     0.59646
 Zero-point vibrational energy     213434.2 (Joules/Mol)
                                   51.01201 (Kcal/Mol)
 Warning -- explicit consideration of   8 degrees of freedom as
           vibrations may cause significant error
 Vibrational temperatures:    145.96   316.91   426.49   474.89   511.88
          (Kelvin)            607.62   716.83   781.39   925.72  1024.42
                             1089.43  1197.80  1214.90  1388.81  1414.66
                             1485.17  1586.65  1586.95  1620.01  1723.36
                             1874.96  1903.75  2046.96  2172.88  2317.27
                             2322.57  4605.31  4606.84  4623.94  4626.13

 Zero-point correction=                           0.081293 (Hartree/Particle)
 Thermal correction to Energy=                    0.087973
 Thermal correction to Enthalpy=                  0.088917
 Thermal correction to Gibbs Free Energy=         0.050605
 Sum of electronic and zero-point Energies=          -1151.526605
 Sum of electronic and thermal Energies=             -1151.519925
 Sum of electronic and thermal Enthalpies=           -1151.518980
 Sum of electronic and thermal Free Energies=        -1151.557293

                     E (Thermal)             CV                S
                      KCal/Mol        Cal/Mol-Kelvin    Cal/Mol-Kelvin
 Total                   55.204             24.791             80.635
 Electronic               0.000              0.000              0.000
 Translational            0.889              2.981             40.845
 Rotational               0.889              2.981             26.584
 Vibrational             53.426             18.829             13.205
 Vibration     1          0.604              1.948              3.426
 Vibration     2          0.647              1.810              1.957
 Vibration     3          0.690              1.680              1.437
 Vibration     4          0.713              1.615              1.260
 Vibration     5          0.731              1.563              1.140
 Vibration     6          0.785              1.422              0.884
 Vibration     7          0.854              1.254              0.663
 Vibration     8          0.898              1.155              0.559

 Optimization completed.
    -- Stationary point found.
 Normal termination of Gaussian 16 at Tue Mar  1 13:16:04 2022.
