 Gaussian 16, Revision B.01,

 ---------------------------------------
 # b3lyp/gen opt freq CPHF(Grid=OneStep)
 ---------------------------------------

 ---------------------------
 benzonitrile, B3LYP/pcseg-2
 ---------------------------
 Symbolic Z-matrix:
 Charge =  0 Multiplicity = 1

 SCF Done:  E(RB3LYP) =  -324.615572027     A.U. after   15 cycles
 Optimization completed.
    -- Stationary point found.
 Normal termination of Gaussian 16 at Fri Sep 29 06:52:44 2023.

 ------------------------------------------------------------------
 #N Geom=AllCheck Guess=TCheck SCRF=Check GenChk RB3LYP/ChkBas Freq
 ------------------------------------------------------------------

 Structure from the checkpoint file:  "phcn.chk"
 ---------------------------
 benzonitrile, B3LYP/pcseg-2
 ---------------------------
 Charge =  0 Multiplicity = 1

 SCF Done:  E(RB3LYP) =  -324.615572027     A.U. after    1 cycles

  Exact polarizability:  44.936   0.000  83.217   0.000  -0.000 120.790
 Approx polarizability:  69.390   0.000 138.766   0.000  -0.000 198.116

                      1                      2                      3
                     B1                     B2                     B1
 Frequencies --    145.3815               168.8235               391.1785
 Red. masses --      5.7690                 6.5999                 4.6985
 Frc consts  --      0.0718                 0.1108                 0.4236
 IR Inten    --      1.8705                 4.6678                 0.5718

                      4                      5                      6
                     A2                     A1                     B2
 Frequencies --    410.2977               467.2235               570.3426
 Red. masses --      2.8617                 8.5049                 7.9067
 Frc consts  --      0.2838                 1.0939                 1.5154
 IR Inten    --      0.0000                 0.0002                 0.3085

                      7                      8                      9
                     B1                     B2                     B1
 Frequencies --    570.3739               641.4986               707.9003
 Red. masses --      4.0495                 6.7495                 1.9060
 Frc consts  --      0.7762                 1.6365                 0.5628
 IR Inten    --     17.9218                 0.1689                35.7268

                     10                     11                     12
                     A1                     B1                     A2
 Frequencies --    774.7524               782.0798               865.1857
 Red. masses --      6.1051                 1.7488                 1.2469
 Frc consts  --      2.1591                 0.6302                 0.5499
 IR Inten    --      2.0914                41.7487                 0.0000

                     13                     14                     15
                     B1                     A2                     A1
 Frequencies --    954.2324              1004.2088              1020.3784
 Red. masses --      1.3990                 1.3764                 6.2136
 Frc consts  --      0.7505                 0.8178                 3.8117
 IR Inten    --      3.2615                 0.0000                 0.1274

                     16                     17                     18
                     B1                     A1                     B2
 Frequencies --   1025.4253              1051.0406              1106.2074
 Red. masses --      1.3162                 2.2515                 1.5876
 Frc consts  --      0.8154                 1.4654                 1.1446
 IR Inten    --      0.0300                 3.8273                 3.9799

                     19                     20                     21
                     B2                     A1                     A1
 Frequencies --   1188.9789              1203.7432              1220.3253
 Red. masses --      1.1256                 1.2387                 3.1310
 Frc consts  --      0.9375                 1.0575                 2.7472
 IR Inten    --      0.2237                 1.0138                 0.2297

                     22                     23                     24
                     B2                     B2                     B2
 Frequencies --   1319.3281              1361.2594              1481.4980
 Red. masses --      4.7610                 1.4702                 2.1515
 Frc consts  --      4.8826                 1.6051                 2.7823
 IR Inten    --      1.7454                 0.7883                 6.4652

                     25                     26                     27
                     A1                     B2                     A1
 Frequencies --   1528.1621              1615.0193              1641.5651
 Red. masses --      2.1555                 5.1618                 5.3634
 Frc consts  --      2.9658                 7.9324                 8.5154
 IR Inten    --      8.5652                 1.0672                 0.7479

                     28                     29                     30
                     A1                     A1                     B2
 Frequencies --   2332.4311              3177.4709              3187.4190
 Red. masses --     12.6840                 1.0861                 1.0887
 Frc consts  --     40.6560                 6.4610                 6.5169
 IR Inten    --     34.0087                 0.0290                 3.5796

                     31                     32                     33
                     A1                     B2                     A1
 Frequencies --   3195.3456              3204.0286              3206.9782
 Red. masses --      1.0923                 1.0943                 1.0974
 Frc consts  --      6.5711                 6.6190                 6.6496
 IR Inten    --      8.2258                 6.6081                 2.5234

 - Thermochemistry -
 -------------------
 Temperature   298.150 Kelvin.  Pressure   1.00000 Atm.
 Atom     1 has atomic number  7 and mass  14.00307

 Molecular mass:   103.04220 amu.
 Principal axes and moments of inertia in atomic units:
                           1         2         3
     Eigenvalues --   316.563671160.723131477.28680
           X            0.00000  -0.00000   1.00000
           Y            0.00000   1.00000   0.00000
           Z            1.00000  -0.00000  -0.00000
 This molecule is an asymmetric top.
 Rotational symmetry number  2.
 Rotational temperatures (Kelvin)      0.27361     0.07462     0.05863
 Rotational constants (GHZ):           5.70104     1.55484     1.22166
 Zero-point vibrational energy     260307.9 (Joules/Mol)
                                   62.21508 (Kcal/Mol)
 Warning -- explicit consideration of   7 degrees of freedom as
           vibrations may cause significant error
 Vibrational temperatures:    209.17   242.90   562.82   590.33   672.23
          (Kelvin)            820.60   820.64   922.97  1018.51  1114.70
                             1125.24  1244.81  1372.93  1444.83  1468.10
                             1475.36  1512.21  1591.59  1710.68  1731.92
                             1755.78  1898.22  1958.55  2131.55  2198.68
                             2323.65  2361.85  3355.85  4571.67  4585.99
                             4597.39  4609.88  4614.13

 Zero-point correction=                           0.099146 (Hartree/Particle)
 Thermal correction to Energy=                    0.105228
 Thermal correction to Enthalpy=                  0.106172
 Thermal correction to Gibbs Free Energy=         0.069549
 Sum of electronic and zero-point Energies=           -324.516426
 Sum of electronic and thermal Energies=              -324.510344
 Sum of electronic and thermal Enthalpies=            -324.509400
 Sum of electronic and thermal Free Energies=         -324.546023

                     E (Thermal)             CV                S
                      KCal/Mol        Cal/Mol-Kelvin    Cal/Mol-Kelvin
 Total                   66.031             23.103             77.080
 Electronic               0.000              0.000              0.000
 Translational            0.889              2.981             39.807
 Rotational               0.889              2.981             26.409
 Vibrational             64.254             17.142             10.863
 Vibration     1          0.617              1.908              2.732
 Vibration     2          0.625              1.881              2.449
 Vibration     3          0.759              1.489              0.996
 Vibration     4          0.774              1.448              0.926
 Vibration     5          0.824              1.323              0.745
 Vibration     6          0.926              1.095              0.504
 Vibration     7          0.926              1.095              0.504

 Optimization completed.
    -- Stationary point found.
 Normal termination of Gaussian 16 at Fri Sep 29 07:05:34 2023.
 Gaussian 16:  ES64L-G16RevB.01 20-Dec-2017

 ---------------------------------
 # rohf/gen geom=check guess=check
 ---------------------------------

 ------------------------------
 benzonitrile, ROHF/cc-pVTZ-F12
 ------------------------------
 Structure from the checkpoint file:  "phcn.chk"
 Charge =  0 Multiplicity = 1

                         Standard orientation:
 ---------------------------------------------------------------------
 Center     Atomic      Atomic             Coordinates (Angstroms)
 Number     Number       Type             X           Y           Z
 ---------------------------------------------------------------------
      1          7           0       -0.000000    0.000000    3.191280
      2          6           0       -0.000000    0.000000    2.039099
      3          6           0       -0.000000    0.000000    0.608495
      4          6           0       -0.000000    1.211915   -0.090750
      5          6           0       -0.000000   -1.211915   -0.090750
      6          6           0       -0.000000    1.205578   -1.477568
      7          6           0       -0.000000   -1.205578   -1.477568
      8          6           0        0.000000   -0.000000   -2.171691
      9          1           0       -0.000000    2.143687    0.456347
     10          1           0       -0.000000   -2.143687    0.456347
     11          1           0       -0.000000    2.142494   -2.017070
     12          1           0       -0.000000   -2.142494   -2.017070
     13          1           0        0.000000   -0.000000   -3.253110
 ---------------------------------------------------------------------

 SCF Done:  E(ROHF) =  -322.561222521     A.U. after   13 cycles

 The electronic state is 1-A1.
 Alpha  occ. eigenvalues --  -15.57072 -11.28979 -11.27506 -11.27061 -11.27056
 Alpha  occ. eigenvalues --  -11.26570 -11.26026 -11.26011  -1.22716  -1.18465
 Alpha  occ. eigenvalues --   -1.06408  -1.04891  -0.88903  -0.86022  -0.76726
 Alpha  occ. eigenvalues --   -0.70077  -0.66298  -0.63813  -0.61975  -0.56616
 Alpha  occ. eigenvalues --   -0.55609  -0.53651  -0.53113  -0.48413  -0.46940
 Alpha  occ. eigenvalues --   -0.36758  -0.35966
 Alpha virt. eigenvalues --    0.03691   0.04492   0.05077   0.05935   0.06702
 Alpha virt. eigenvalues --    0.06891   0.06963   0.08320   0.08924   0.09234
 Alpha virt. eigenvalues --    0.09724   0.09868   0.09876   0.11602   0.11880

 Mulliken charges and spin densities:
               1          2
     1  N   -0.415914   0.000000
     2  C   -0.008239   0.000000
     3  C    0.389527   0.000000
     4  C   -0.159661   0.000000
     5  C   -0.159661   0.000000
     6  C   -0.144281   0.000000
     7  C   -0.144281   0.000000
     8  C   -0.137078   0.000000
     9  H    0.163491   0.000000
    10  H    0.163491   0.000000
    11  H    0.150508   0.000000
    12  H    0.150508   0.000000
    13  H    0.151592   0.000000
 Sum of Mulliken charges =  -0.00000   0.00000

 Dipole moment (field-independent basis, Debye):
    X=             -0.0000    Y=             -0.0000    Z=             -4.9998  Tot=              4.9998
 Quadrupole moment (field-independent basis, Debye-Ang):
   XX=            -50.0641   YY=            -39.7287   ZZ=            -57.7208
   XY=              0.0000   XZ=              0.0000   YZ=              0.0000

 Normal termination of Gaussian 16 at Fri Sep 29 07:12:25 2023.
