 Gaussian 16, Revision B.01,
 Gaussian 16:  ES64L-G16RevB.01 20-Dec-2017

 --------------------
 # b3lyp/gen opt freq
 --------------------

 ---------------------------
 benzonitrile, B3LYP/pcseg-2
 ---------------------------
 Symbolic Z-matrix:
 Charge =  0 Multiplicity = 1

 SCF Done:  E(RB3LYP) =  -324.615453798     A.U. after   15 cycles
 SCF Done:  E(RB3LYP) =  -324.615571158     A.U. after    9 cycles
 SCF Done:  E(RB3LYP) =  -324.615572026     A.U. after    7 cycles
 Optimization completed.
    -- Stationary point found.
 Normal termination of Gaussian 16 at Tue Sep 12 10:41:03 2023.

 ------------------------------------------------------------------
 #N Geom=AllCheck Guess=TCheck SCRF=Check GenChk RB3LYP/ChkBas Freq
 ------------------------------------------------------------------

 Structure from the checkpoint file:  "/wrk/irikura/Gau-332053.chk"
 ---------------------------
 benzonitrile, B3LYP/pcseg-2
 ---------------------------
 Charge =  0 Multiplicity = 1

                         Standard orientation:
 ---------------------------------------------------------------------
 Center     Atomic      Atomic             Coordinates (Angstroms)
 Number     Number       Type             X           Y           Z
 ---------------------------------------------------------------------
      1          7           0        0.000000    0.000000    3.191280
      2          6           0        0.000000    0.000000    2.039099
      3          6           0        0.000000    0.000000    0.608495
      4          6           0        0.000000    1.211915   -0.090750
      5          6           0       -0.000000   -1.211915   -0.090750
      6          6           0        0.000000    1.205578   -1.477568
      7          6           0       -0.000000   -1.205578   -1.477568
      8          6           0        0.000000   -0.000000   -2.171691
      9          1           0        0.000000    2.143687    0.456347
     10          1           0       -0.000000   -2.143687    0.456347
     11          1           0        0.000000    2.142494   -2.017070
     12          1           0       -0.000000   -2.142494   -2.017070
     13          1           0        0.000000   -0.000000   -3.253110
 ---------------------------------------------------------------------

 SCF Done:  E(RB3LYP) =  -324.615572026     A.U. after    1 cycles

 The electronic state is 1-A1.
 Alpha  occ. eigenvalues --  -14.31832 -10.23217 -10.21433 -10.20992 -10.20991
 Alpha  occ. eigenvalues --  -10.20554 -10.20366 -10.20357  -0.91960  -0.88982
 Alpha  occ. eigenvalues --   -0.79553  -0.78134  -0.66437  -0.64066  -0.57723
 Alpha  occ. eigenvalues --   -0.51625  -0.49250  -0.46887  -0.45592  -0.41926
 Alpha  occ. eigenvalues --   -0.39485  -0.38402  -0.36894  -0.36223  -0.34469
 Alpha  occ. eigenvalues --   -0.28947  -0.28036
 Alpha virt. eigenvalues --   -0.06683  -0.04301   0.00226   0.02333   0.02896
 Alpha virt. eigenvalues --    0.03345   0.06010   0.06280   0.06952   0.10786
 Alpha virt. eigenvalues --    0.11199   0.11919   0.14275   0.15271   0.17376

 Mulliken charges:
               1
     1  N   -0.169561
     2  C    0.009880
     3  C    0.240283
     4  C   -0.117378
     5  C   -0.117378
     6  C   -0.019376
     7  C   -0.019376
     8  C    0.021035
     9  H    0.042662
    10  H    0.042662
    11  H    0.027043
    12  H    0.027043
    13  H    0.032461
 Sum of Mulliken charges =   0.00000

 Dipole moment (field-independent basis, Debye):
    X=              0.0000    Y=             -0.0000    Z=             -4.7144  Tot=              4.7144
 Quadrupole moment (field-independent basis, Debye-Ang):
   XX=            -49.1249   YY=            -39.9290   ZZ=            -57.1514
   XY=              0.0000   XZ=             -0.0000   YZ=              0.0000

  Exact polarizability:  44.935   0.000  83.217   0.000  -0.000 120.790
 Approx polarizability:  69.390   0.000 138.766   0.000  -0.000 198.116

                      1                      2                      3
                     B1                     B2                     B1
 Frequencies --    145.3808               168.8251               391.1782
 Red. masses --      5.7689                 6.5999                 4.6985
 Frc consts  --      0.0718                 0.1108                 0.4236
 IR Inten    --      1.8707                 4.6680                 0.5715

                      4                      5                      6
                     A2                     A1                     B2
 Frequencies --    410.2987               467.2237               570.3435
 Red. masses --      2.8617                 8.5048                 7.9066
 Frc consts  --      0.2838                 1.0939                 1.5154
 IR Inten    --      0.0000                 0.0002                 0.3083

                      7                      8                      9
                     B1                     B2                     B1
 Frequencies --    570.3735               641.5004               707.8994
 Red. masses --      4.0495                 6.7495                 1.9060
 Frc consts  --      0.7762                 1.6365                 0.5628
 IR Inten    --     17.9221                 0.1688                35.7284

                     10                     11                     12
                     A1                     B1                     A2
 Frequencies --    774.7496               782.0776               865.1771
 Red. masses --      6.1050                 1.7488                 1.2469
 Frc consts  --      2.1590                 0.6302                 0.5499
 IR Inten    --      2.0908                41.7465                 0.0000

                     13                     14                     15
                     B1                     A2                     A1
 Frequencies --    954.2307              1004.2090              1020.3766
 Red. masses --      1.3990                 1.3764                 6.2136
 Frc consts  --      0.7505                 0.8178                 3.8117
 IR Inten    --      3.2622                 0.0000                 0.1273

                     16                     17                     18
                     B1                     A1                     B2
 Frequencies --   1025.4262              1051.0377              1106.2053
 Red. masses --      1.3162                 2.2515                 1.5876
 Frc consts  --      0.8154                 1.4654                 1.1446
 IR Inten    --      0.0299                 3.8261                 3.9790

                     19                     20                     21
                     B2                     A1                     A1
 Frequencies --   1188.9781              1203.7395              1220.3235
 Red. masses --      1.1256                 1.2388                 3.1305
 Frc consts  --      0.9375                 1.0576                 2.7467
 IR Inten    --      0.2236                 1.0138                 0.2293

                     22                     23                     24
                     B2                     B2                     B2
 Frequencies --   1319.3274              1361.2554              1481.4942
 Red. masses --      4.7609                 1.4702                 2.1515
 Frc consts  --      4.8825                 1.6051                 2.7822
 IR Inten    --      1.7449                 0.7886                 6.4669

                     25                     26                     27
                     A1                     B2                     A1
 Frequencies --   1528.1528              1615.0207              1641.5674
 Red. masses --      2.1555                 5.1618                 5.3635
 Frc consts  --      2.9657                 7.9324                 8.5155
 IR Inten    --      8.5717                 1.0675                 0.7474

                     28                     29                     30
                     A1                     A1                     B2
 Frequencies --   2332.4297              3177.4664              3187.4188
 Red. masses --     12.6840                 1.0861                 1.0887
 Frc consts  --     40.6559                 6.4610                 6.5169
 IR Inten    --     34.0102                 0.0292                 3.5799

                     31                     32                     33
                     A1                     B2                     A1
 Frequencies --   3195.3409              3204.0265              3206.9764
 Red. masses --      1.0923                 1.0943                 1.0974
 Frc consts  --      6.5711                 6.6190                 6.6496
 IR Inten    --      8.2298                 6.6079                 2.5227

 - Thermochemistry -
 -------------------
 Temperature   298.150 Kelvin.  Pressure   1.00000 Atm.
 Atom     1 has atomic number  7 and mass  14.00307

 Molecular mass:   103.04220 amu.
 Principal axes and moments of inertia in atomic units:
                           1         2         3
     Eigenvalues --   316.563601160.723031477.28663
           X            0.00000   0.00000   1.00000
           Y            0.00000   1.00000  -0.00000
           Z            1.00000  -0.00000  -0.00000
 This molecule is an asymmetric top.
 Rotational symmetry number  2.
 Rotational temperatures (Kelvin)      0.27361     0.07462     0.05863
 Rotational constants (GHZ):           5.70104     1.55484     1.22166
 Zero-point vibrational energy     260307.6 (Joules/Mol)
                                   62.21501 (Kcal/Mol)
 Warning -- explicit consideration of   7 degrees of freedom as
           vibrations may cause significant error
 Vibrational temperatures:    209.17   242.90   562.82   590.33   672.23
          (Kelvin)            820.60   820.64   922.98  1018.51  1114.69
                             1125.24  1244.80  1372.93  1444.83  1468.09
                             1475.36  1512.21  1591.58  1710.67  1731.91
                             1755.77  1898.22  1958.54  2131.54  2198.67
                             2323.65  2361.85  3355.85  4571.67  4585.98
                             4597.38  4609.88  4614.12

 Zero-point correction=                           0.099146 (Hartree/Particle)
 Thermal correction to Energy=                    0.105228
 Thermal correction to Enthalpy=                  0.106172
 Thermal correction to Gibbs Free Energy=         0.069549
 Sum of electronic and zero-point Energies=           -324.516426
 Sum of electronic and thermal Energies=              -324.510344
 Sum of electronic and thermal Enthalpies=            -324.509400
 Sum of electronic and thermal Free Energies=         -324.546023

                     E (Thermal)             CV                S
                      KCal/Mol        Cal/Mol-Kelvin    Cal/Mol-Kelvin
 Total                   66.031             23.103             77.080
 Electronic               0.000              0.000              0.000
 Translational            0.889              2.981             39.807
 Rotational               0.889              2.981             26.409
 Vibrational             64.254             17.142             10.863
 Vibration     1          0.617              1.908              2.732
 Vibration     2          0.625              1.881              2.449
 Vibration     3          0.759              1.489              0.996
 Vibration     4          0.774              1.448              0.926
 Vibration     5          0.824              1.323              0.745
 Vibration     6          0.926              1.095              0.504
 Vibration     7          0.926              1.095              0.504

 Optimization completed.
    -- Stationary point found.
 Normal termination of Gaussian 16 at Tue Sep 12 10:44:33 2023.
