 Gaussian 16, Revision B.01,

 ---------------------------------------
 # b3lyp/gen opt freq CPHF(Grid=OneStep)
 ---------------------------------------

 ---------------------------
 benzoic acid, B3LYP/pcseg-2
 ---------------------------
 Symbolic Z-matrix:
 Charge =  0 Multiplicity = 1

 SCF Done:  E(RB3LYP) =  -420.996783606     A.U. after   14 cycles
 Optimization completed.
    -- Stationary point found.
 Normal termination of Gaussian 16 at Sat Sep 30 16:41:09 2023.

 ------------------------------------------------------------------
 #N Geom=AllCheck Guess=TCheck SCRF=Check GenChk RB3LYP/ChkBas Freq
 ------------------------------------------------------------------

 Structure from the checkpoint file:  "phcooh.chk"
 ---------------------------
 benzoic acid, B3LYP/pcseg-2
 ---------------------------
 Charge =  0 Multiplicity = 1

 SCF Done:  E(RB3LYP) =  -420.996783606     A.U. after    1 cycles

  Exact polarizability:  93.845  -1.751 116.398   0.000  -0.000  47.313
 Approx polarizability: 160.752   4.002 176.376   0.000  -0.000  73.919

                      1                      2                      3
                     A"                     A"                     A'
 Frequencies --     61.7310               157.8885               217.0574
 Red. masses --      7.0532                 4.5138                 5.5435
 Frc consts  --      0.0158                 0.0663                 0.1539
 IR Inten    --      1.0784                 0.6573                 1.5724

                      4                      5                      6
                     A'                     A"                     A"
 Frequencies --    383.9411               415.5970               436.6107
 Red. masses --      7.9212                 2.8408                 3.0354
 Frc consts  --      0.6880                 0.2891                 0.3409
 IR Inten    --      4.7444                 0.4498                10.1804

                      7                      8                      9
                     A'                     A"                     A'
 Frequencies --    497.6605               589.7424               633.9009
 Red. masses --      7.1888                 1.2146                 6.3470
 Frc consts  --      1.0490                 0.2489                 1.5027
 IR Inten    --      6.0724                63.8315                 0.3963

                     10                     11                     12
                     A'                     A"                     A"
 Frequencies --    640.4920               708.0562               731.1987
 Red. masses --      4.8014                 2.2206                 1.8506
 Frc consts  --      1.1605                 0.6559                 0.5829
 IR Inten    --     48.6794                10.8431               128.4489

                     13                     14                     15
                     A'                     A"                     A"
 Frequencies --    776.6734               826.7582               871.6881
 Red. masses --      4.7721                 3.0119                 1.2466
 Frc consts  --      1.6961                 1.2130                 0.5581
 IR Inten    --      8.4833                 0.0507                 0.0394

                     16                     17                     18
                     A"                     A"                     A'
 Frequencies --    970.3843              1013.0654              1022.7064
 Red. masses --      1.4372                 1.3781                 6.2371
 Frc consts  --      0.7974                 0.8333                 3.8436
 IR Inten    --      1.2277                 0.0308                 0.2322

                     19                     20                     21
                     A"                     A'                     A'
 Frequencies --   1028.5725              1048.6721              1091.8300
 Red. masses --      1.3215                 2.4559                 2.3107
 Frc consts  --      0.8237                 1.5913                 1.6229
 IR Inten    --      0.0078                18.9209               117.3834

                     22                     23                     24
                     A'                     A'                     A'
 Frequencies --   1116.0991              1186.4068              1189.2472
 Red. masses --      2.2559                 1.1283                 1.4518
 Frc consts  --      1.6557                 0.9357                 1.2098
 IR Inten    --     43.1920                 3.5975               166.7495

                     25                     26                     27
                     A'                     A'                     A'
 Frequencies --   1210.5160              1339.0692              1355.1720
 Red. masses --      1.4043                 4.0140                 1.5681
 Frc consts  --      1.2124                 4.2406                 1.6968
 IR Inten    --     54.7263                 1.8491                 3.7967

                     28                     29                     30
                     A'                     A'                     A'
 Frequencies --   1366.4906              1486.5693              1528.8021
 Red. masses --      2.6627                 2.1980                 2.2069
 Frc consts  --      2.9294                 2.8619                 3.0390
 IR Inten    --    117.4369                15.2580                 1.3650

                     31                     32                     33
                     A'                     A'                     A'
 Frequencies --   1622.8407              1642.8093              1781.8899
 Red. masses --      5.5581                 5.4658                 9.7556
 Frc consts  --      8.6243                 8.6911                18.2501
 IR Inten    --      5.1947                17.5773               371.1399

                     34                     35                     36
                     A'                     A'                     A'
 Frequencies --   3172.5579              3184.4907              3193.9020
 Red. masses --      1.0861                 1.0895                 1.0941
 Frc consts  --      6.4407                 6.5097                 6.5757
 IR Inten    --      0.3645                 9.9153                11.9627

                     37                     38                     39
                     A'                     A'                     A'
 Frequencies --   3207.4541              3215.0229              3762.2829
 Red. masses --      1.0937                 1.0931                 1.0644
 Frc consts  --      6.6293                 6.6573                 8.8768
 IR Inten    --      4.4007                 2.2546                95.4182

 - Thermochemistry -
 -------------------
 Temperature   298.150 Kelvin.  Pressure   1.00000 Atm.
 Atom     1 has atomic number  6 and mass  12.00000

 Molecular mass:   122.03678 amu.
 Principal axes and moments of inertia in atomic units:
                           1         2         3
     Eigenvalues --   462.672381469.275991931.94838
           X           -0.12734   0.99186   0.00000
           Y            0.99186   0.12734   0.00000
           Z           -0.00000   0.00000   1.00000
 This molecule is an asymmetric top.
 Rotational symmetry number  1.
 Warning -- assumption of classical behavior for rotation
           may cause significant error
 Rotational temperatures (Kelvin)      0.18720     0.05895     0.04483
 Rotational constants (GHZ):           3.90069     1.22832     0.93416
 Zero-point vibrational energy     303168.7 (Joules/Mol)
                                   72.45906 (Kcal/Mol)
 Warning -- explicit consideration of   8 degrees of freedom as
           vibrations may cause significant error
 Vibrational temperatures:     88.82   227.17   312.30   552.41   597.95
          (Kelvin)            628.19   716.02   848.51   912.04   921.53
                             1018.73  1052.03  1117.46  1189.52  1254.16
                             1396.17  1457.58  1471.45  1479.89  1508.81
                             1570.90  1605.82  1706.97  1711.06  1741.66
                             1926.62  1949.79  1966.08  2138.84  2199.61
                             2334.91  2363.64  2563.74  4564.60  4581.77
                             4595.31  4614.81  4625.70  5413.09

 Zero-point correction=                           0.115471 (Hartree/Particle)
 Thermal correction to Energy=                    0.122590
 Thermal correction to Enthalpy=                  0.123535
 Thermal correction to Gibbs Free Energy=         0.083364
 Sum of electronic and zero-point Energies=           -420.881313
 Sum of electronic and thermal Energies=              -420.874193
 Sum of electronic and thermal Enthalpies=            -420.873249
 Sum of electronic and thermal Free Energies=         -420.913420

                     E (Thermal)             CV                S
                      KCal/Mol        Cal/Mol-Kelvin    Cal/Mol-Kelvin
 Total                   76.927             27.231             84.547
 Electronic               0.000              0.000              0.000
 Translational            0.889              2.981             40.312
 Rotational               0.889              2.981             28.664
 Vibrational             75.149             21.269             15.571
 Vibration     1          0.597              1.973              4.401
 Vibration     2          0.621              1.894              2.575
 Vibration     3          0.646              1.815              1.984
 Vibration     4          0.753              1.504              1.024
 Vibration     5          0.779              1.436              0.907
 Vibration     6          0.797              1.390              0.837
 Vibration     7          0.853              1.255              0.664
 Vibration     8          0.947              1.054              0.468

 Optimization completed.
    -- Stationary point found.
 Normal termination of Gaussian 16 at Sat Sep 30 17:08:09 2023.
 Gaussian 16:  ES64L-G16RevB.01 20-Dec-2017

 ---------------------------------
 # rohf/gen geom=check guess=check
 ---------------------------------

 ------------------------------
 benzoic acid, ROHF/cc-pVTZ-F12
 ------------------------------
 Structure from the checkpoint file:  "phcooh.chk"
 Charge =  0 Multiplicity = 1

                         Standard orientation:
 ---------------------------------------------------------------------
 Center     Atomic      Atomic             Coordinates (Angstroms)
 Number     Number       Type             X           Y           Z
 ---------------------------------------------------------------------
      1          6           0       -0.000000    0.220338   -0.000000
      2          6           0        1.277879   -0.342724    0.000000
      3          6           0        1.429948   -1.720912    0.000000
      4          6           0        0.307974   -2.544632    0.000000
      5          6           0       -0.966666   -1.987905    0.000000
      6          6           0       -1.124020   -0.608585   -0.000000
      7          6           0       -0.110796    1.701452   -0.000000
      8          8           0        0.823055    2.465798   -0.000000
      9          8           0       -1.393881    2.140575   -0.000000
     10          1           0        2.135555    0.314385    0.000000
     11          1           0        2.420712   -2.154222    0.000000
     12          1           0        0.427231   -3.619852    0.000000
     13          1           0       -1.837785   -2.628698    0.000000
     14          1           0       -2.111036   -0.171263   -0.000000
     15          1           0       -1.353988    3.106474   -0.000000
 ---------------------------------------------------------------------

 SCF Done:  E(ROHF) =  -418.500440890     A.U. after   13 cycles

 The electronic state is 1-A'.
 Alpha  occ. eigenvalues --  -20.61133 -20.54599 -11.38998 -11.25616 -11.25466
 Alpha  occ. eigenvalues --  -11.25456 -11.25189 -11.24574 -11.24501  -1.46619
 Alpha  occ. eigenvalues --   -1.36160  -1.17298  -1.05153  -1.03289  -0.90124
 Alpha  occ. eigenvalues --   -0.84602  -0.80472  -0.73416  -0.70657  -0.67804
 Alpha  occ. eigenvalues --   -0.64196  -0.63580  -0.62940  -0.60601  -0.58817
 Alpha  occ. eigenvalues --   -0.52903  -0.52105  -0.50879  -0.48685  -0.45834
 Alpha  occ. eigenvalues --   -0.35681  -0.35181
 Alpha virt. eigenvalues --    0.04239   0.04845   0.05254   0.06286   0.06386
 Alpha virt. eigenvalues --    0.07280   0.07294   0.08782   0.09541   0.09666
 Alpha virt. eigenvalues --    0.09676   0.10067   0.10549   0.11902   0.12353

 Mulliken charges and spin densities:
               1          2
     1  C    0.130783   0.000000
     2  C   -0.168548   0.000000
     3  C   -0.162876   0.000000
     4  C   -0.158220   0.000000
     5  C   -0.158253   0.000000
     6  C   -0.101450   0.000000
     7  C    0.775631   0.000000
     8  O   -0.666743   0.000000
     9  O   -0.759025   0.000000
    10  H    0.185118   0.000000
    11  H    0.145927   0.000000
    12  H    0.148658   0.000000
    13  H    0.143997   0.000000
    14  H    0.169281   0.000000
    15  H    0.475722   0.000000
 Sum of Mulliken charges =  -0.00000   0.00000

 Dipole moment (field-independent basis, Debye):
    X=             -1.2952    Y=             -1.9937    Z=             -0.0000  Tot=              2.3775
 Quadrupole moment (field-independent basis, Debye-Ang):
   XX=            -49.1218   YY=            -46.9882   ZZ=            -55.3624
   XY=             -6.3973   XZ=              0.0000   YZ=             -0.0000

 Normal termination of Gaussian 16 at Sat Sep 30 17:27:34 2023.
