 Gaussian 16, Revision B.01,
 Gaussian 16:  ES64L-G16RevB.01 20-Dec-2017

 --------------------
 # b3lyp/gen opt freq
 --------------------

 ---------------------------
 benzoic acid, B3LYP/pcseg-2
 ---------------------------
 Symbolic Z-matrix:
 Charge =  0 Multiplicity = 1

 SCF Done:  E(RB3LYP) =  -420.996679822     A.U. after   14 cycles
 SCF Done:  E(RB3LYP) =  -420.996782706     A.U. after    9 cycles
 SCF Done:  E(RB3LYP) =  -420.996783606     A.U. after    7 cycles
 Optimization completed.
    -- Stationary point found.
 Normal termination of Gaussian 16 at Sat Feb 26 10:41:32 2022.

 ------------------------------------------------------------------
 #N Geom=AllCheck Guess=TCheck SCRF=Check GenChk RB3LYP/ChkBas Freq
 ------------------------------------------------------------------

 Structure from the checkpoint file:  "/wrk/irikura/Gau-27542.chk"
 ---------------------------
 benzoic acid, B3LYP/pcseg-2
 ---------------------------
 Charge =  0 Multiplicity = 1

                         Standard orientation:
 ---------------------------------------------------------------------
 Center     Atomic      Atomic             Coordinates (Angstroms)
 Number     Number       Type             X           Y           Z
 ---------------------------------------------------------------------
      1          6           0       -0.000000    0.220338    0.000000
      2          6           0        1.277879   -0.342724   -0.000000
      3          6           0        1.429948   -1.720912   -0.000000
      4          6           0        0.307975   -2.544632   -0.000000
      5          6           0       -0.966666   -1.987905   -0.000000
      6          6           0       -1.124020   -0.608585    0.000000
      7          6           0       -0.110796    1.701452    0.000000
      8          8           0        0.823055    2.465798    0.000000
      9          8           0       -1.393881    2.140575    0.000000
     10          1           0        2.135555    0.314385   -0.000000
     11          1           0        2.420713   -2.154221   -0.000000
     12          1           0        0.427232   -3.619852   -0.000000
     13          1           0       -1.837784   -2.628698   -0.000000
     14          1           0       -2.111036   -0.171263    0.000000
     15          1           0       -1.353989    3.106474    0.000000
 ---------------------------------------------------------------------

 SCF Done:  E(RB3LYP) =  -420.996783606     A.U. after    1 cycles

 The electronic state is 1-A'.
 Alpha  occ. eigenvalues --  -19.17756 -19.11781 -10.31438 -10.20065 -10.19422
 Alpha  occ. eigenvalues --  -10.19391 -10.19168 -10.19024 -10.18970  -1.11722
 Alpha  occ. eigenvalues --   -1.02638  -0.87812  -0.78245  -0.76588  -0.67394
 Alpha  occ. eigenvalues --   -0.62703  -0.59921  -0.54734  -0.50466  -0.48723
 Alpha  occ. eigenvalues --   -0.46810  -0.46374  -0.45550  -0.44116  -0.41380
 Alpha  occ. eigenvalues --   -0.38631  -0.37540  -0.36178  -0.33665  -0.29297
 Alpha  occ. eigenvalues --   -0.27707  -0.27455
 Alpha virt. eigenvalues --   -0.06482  -0.02843   0.00783   0.01999   0.03857
 Alpha virt. eigenvalues --    0.03910   0.05178   0.07866   0.08409   0.12213
 Alpha virt. eigenvalues --    0.12654   0.14437   0.15625   0.16143   0.17933

 Mulliken charges:
               1
     1  C    0.124680
     2  C   -0.088549
     3  C   -0.000939
     4  C    0.009577
     5  C   -0.015389
     6  C   -0.072632
     7  C    0.494469
     8  O   -0.444375
     9  O   -0.360486
    10  H    0.036154
    11  H    0.024854
    12  H    0.027917
    13  H    0.025085
    14  H    0.026763
    15  H    0.212870
 Sum of Mulliken charges =   0.00000

 Dipole moment (field-independent basis, Debye):
    X=             -1.2018    Y=             -1.7665    Z=              0.0000  Tot=              2.1366
 Quadrupole moment (field-independent basis, Debye-Ang):
   XX=            -49.3498   YY=            -46.9810   ZZ=            -54.6327
   XY=             -6.0538   XZ=              0.0000   YZ=             -0.0000

  Exact polarizability:  93.844  -1.751 116.398   0.000   0.000  47.313
 Approx polarizability: 160.752   4.002 176.376  -0.000   0.000  73.919

                      1                      2                      3
                     A"                     A"                     A'
 Frequencies --     61.7385               157.8959               217.0584
 Red. masses --      7.0533                 4.5139                 5.5435
 Frc consts  --      0.0158                 0.0663                 0.1539
 IR Inten    --      1.0784                 0.6570                 1.5721

                      4                      5                      6
                     A'                     A"                     A"
 Frequencies --    383.9411               415.5971               436.6134
 Red. masses --      7.9212                 2.8408                 3.0355
 Frc consts  --      0.6880                 0.2891                 0.3409
 IR Inten    --      4.7450                 0.4490                10.1800

                      7                      8                      9
                     A'                     A"                     A'
 Frequencies --    497.6584               589.7546               633.8984
 Red. masses --      7.1888                 1.2146                 6.3469
 Frc consts  --      1.0490                 0.2489                 1.5026
 IR Inten    --      6.0727                63.8348                 0.3973

                     10                     11                     12
                     A'                     A"                     A"
 Frequencies --    640.4934               708.0581               731.2007
 Red. masses --      4.8014                 2.2206                 1.8506
 Frc consts  --      1.1605                 0.6559                 0.5829
 IR Inten    --     48.6788                10.8424               128.4552

                     13                     14                     15
                     A'                     A"                     A"
 Frequencies --    776.6747               826.7603               871.6955
 Red. masses --      4.7722                 3.0119                 1.2466
 Frc consts  --      1.6961                 1.2130                 0.5581
 IR Inten    --      8.4829                 0.0508                 0.0394

                     16                     17                     18
                     A"                     A"                     A'
 Frequencies --    970.3877              1013.0653              1022.7073
 Red. masses --      1.4372                 1.3781                 6.2371
 Frc consts  --      0.7974                 0.8333                 3.8436
 IR Inten    --      1.2280                 0.0309                 0.2322

                     19                     20                     21
                     A"                     A'                     A'
 Frequencies --   1028.5728              1048.6741              1091.8298
 Red. masses --      1.3215                 2.4560                 2.3107
 Frc consts  --      0.8237                 1.5913                 1.6229
 IR Inten    --      0.0078                18.9251               117.3783

                     22                     23                     24
                     A'                     A'                     A'
 Frequencies --   1116.0987              1186.4081              1189.2449
 Red. masses --      2.2558                 1.1282                 1.4518
 Frc consts  --      1.6556                 0.9357                 1.2097
 IR Inten    --     43.1941                 3.5902               166.7685

                     25                     26                     27
                     A'                     A'                     A'
 Frequencies --   1210.5185              1339.0716              1355.1730
 Red. masses --      1.4043                 4.0146                 1.5680
 Frc consts  --      1.2124                 4.2413                 1.6966
 IR Inten    --     54.7336                 1.8493                 3.8045

                     28                     29                     30
                     A'                     A'                     A'
 Frequencies --   1366.4930              1486.5714              1528.8068
 Red. masses --      2.6628                 2.1980                 2.2069
 Frc consts  --      2.9296                 2.8619                 3.0390
 IR Inten    --    117.4345                15.2562                 1.3649

                     31                     32                     33
                     A'                     A'                     A'
 Frequencies --   1622.8388              1642.8107              1781.8847
 Red. masses --      5.5581                 5.4658                 9.7557
 Frc consts  --      8.6244                 8.6912                18.2501
 IR Inten    --      5.1956                17.5766               371.1332

                     34                     35                     36
                     A'                     A'                     A'
 Frequencies --   3172.5581              3184.4935              3193.9030
 Red. masses --      1.0861                 1.0895                 1.0941
 Frc consts  --      6.4407                 6.5097                 6.5757
 IR Inten    --      0.3648                 9.9145                11.9633

                     37                     38                     39
                     A'                     A'                     A'
 Frequencies --   3207.4593              3215.0007              3762.2834
 Red. masses --      1.0937                 1.0931                 1.0644
 Frc consts  --      6.6293                 6.6572                 8.8768
 IR Inten    --      4.4008                 2.2532                95.4168

 - Thermochemistry -
 -------------------
 Temperature   298.150 Kelvin.  Pressure   1.00000 Atm.
 Atom     1 has atomic number  6 and mass  12.00000

 Molecular mass:   122.03678 amu.
 Principal axes and moments of inertia in atomic units:
                           1         2         3
     Eigenvalues --   462.672451469.276011931.94846
           X           -0.12734   0.99186   0.00000
           Y            0.99186   0.12734   0.00000
           Z            0.00000   0.00000   1.00000
 This molecule is an asymmetric top.
 Rotational symmetry number  1.
 Warning -- assumption of classical behavior for rotation
           may cause significant error
 Rotational temperatures (Kelvin)      0.18720     0.05895     0.04483
 Rotational constants (GHZ):           3.90069     1.22832     0.93416
 Zero-point vibrational energy     303169.0 (Joules/Mol)
                                   72.45912 (Kcal/Mol)
 Warning -- explicit consideration of   8 degrees of freedom as
           vibrations may cause significant error
 Vibrational temperatures:     88.83   227.18   312.30   552.41   597.95
          (Kelvin)            628.19   716.02   848.53   912.04   921.53
                             1018.74  1052.03  1117.46  1189.52  1254.18
                             1396.17  1457.58  1471.45  1479.89  1508.81
                             1570.90  1605.82  1706.98  1711.06  1741.67
                             1926.63  1949.79  1966.08  2138.84  2199.61
                             2334.90  2363.64  2563.73  4564.60  4581.78
                             4595.31  4614.82  4625.67  5413.09

 Zero-point correction=                           0.115471 (Hartree/Particle)
 Thermal correction to Energy=                    0.122591
 Thermal correction to Enthalpy=                  0.123535
 Thermal correction to Gibbs Free Energy=         0.083364
 Sum of electronic and zero-point Energies=           -420.881313
 Sum of electronic and thermal Energies=              -420.874193
 Sum of electronic and thermal Enthalpies=            -420.873249
 Sum of electronic and thermal Free Energies=         -420.913420

                     E (Thermal)             CV                S
                      KCal/Mol        Cal/Mol-Kelvin    Cal/Mol-Kelvin
 Total                   76.927             27.230             84.547
 Electronic               0.000              0.000              0.000
 Translational            0.889              2.981             40.312
 Rotational               0.889              2.981             28.664
 Vibrational             75.149             21.269             15.571
 Vibration     1          0.597              1.973              4.401
 Vibration     2          0.621              1.894              2.575
 Vibration     3          0.646              1.815              1.983
 Vibration     4          0.753              1.504              1.024
 Vibration     5          0.779              1.436              0.907
 Vibration     6          0.797              1.390              0.837
 Vibration     7          0.853              1.255              0.664
 Vibration     8          0.947              1.054              0.468

 Optimization completed.
    -- Stationary point found.
 Normal termination of Gaussian 16 at Sat Feb 26 10:49:15 2022.
