 Gaussian 16, Revision B.01,
 Gaussian 16:  ES64L-G16RevB.01 20-Dec-2017

 --------------------
 # b3lyp/gen opt freq
 --------------------

 ----------------------
 benzoyl, B3LYP/pcseg-2
 ----------------------
 Symbolic Z-matrix:
 Charge =  0 Multiplicity = 2

 SCF Done:  E(UB3LYP) =  -345.055930520     A.U. after   18 cycles
 SCF Done:  E(UB3LYP) =  -345.055990943     A.U. after   11 cycles
 SCF Done:  E(UB3LYP) =  -345.055993464     A.U. after    9 cycles
 Optimization completed.
    -- Stationary point found.
 Normal termination of Gaussian 16 at Fri Sep  8 17:59:49 2023.

 ------------------------------------------------------------------
 #N Geom=AllCheck Guess=TCheck SCRF=Check GenChk UB3LYP/ChkBas Freq
 ------------------------------------------------------------------

 Structure from the checkpoint file:  "/wrk/irikura/Gau-14200.chk"
 ----------------------
 benzoyl, B3LYP/pcseg-2
 ----------------------
 Charge =  0 Multiplicity = 2

                         Standard orientation:
 ---------------------------------------------------------------------
 Center     Atomic      Atomic             Coordinates (Angstroms)
 Number     Number       Type             X           Y           Z
 ---------------------------------------------------------------------
      1          6           0       -0.294066    2.055569   -0.000000
      2          6           0       -0.000000    0.607638   -0.000000
      3          6           0       -1.039768   -0.330894    0.000000
      4          6           0       -0.742159   -1.683861    0.000000
      5          6           0        0.586711   -2.105099    0.000000
      6          6           0        1.620799   -1.175151    0.000000
      7          6           0        1.328269    0.182108   -0.000000
      8          1           0       -2.063995    0.015623   -0.000000
      9          1           0       -1.540586   -2.413629    0.000000
     10          1           0        0.814289   -3.162742    0.000000
     11          1           0        2.649545   -1.507956    0.000000
     12          1           0        2.117028    0.921972   -0.000000
     13          8           0       -1.341874    2.605608   -0.000000
 ---------------------------------------------------------------------

 SCF Done:  E(UB3LYP) =  -345.055993464     A.U. after    1 cycles

 The electronic state is 2-A'.
 Alpha  occ. eigenvalues --  -19.16520 -10.26357 -10.21274 -10.20361 -10.20341
 Alpha  occ. eigenvalues --  -10.20286 -10.19898 -10.19846  -1.09162  -0.88735
 Alpha  occ. eigenvalues --   -0.78891  -0.77537  -0.66110  -0.63383  -0.57814
 Alpha  occ. eigenvalues --   -0.52701  -0.48942  -0.48629  -0.46194  -0.45036
 Alpha  occ. eigenvalues --   -0.43662  -0.41889  -0.39055  -0.38570  -0.37086
 Alpha  occ. eigenvalues --   -0.28756  -0.28383  -0.20284
 Alpha virt. eigenvalues --   -0.08140  -0.03718   0.00930   0.02116   0.03176
 Alpha virt. eigenvalues --    0.04369   0.06674   0.07356   0.11210   0.11342
 Alpha virt. eigenvalues --    0.13022   0.14390   0.15206   0.17397   0.18279

  Beta  occ. eigenvalues --  -19.15650 -10.25309 -10.20942 -10.20371 -10.20302
  Beta  occ. eigenvalues --  -10.20298 -10.19880 -10.19843  -1.07571  -0.88543
  Beta  occ. eigenvalues --   -0.78380  -0.77477  -0.65204  -0.63243  -0.57066
  Beta  occ. eigenvalues --   -0.52003  -0.48415  -0.47608  -0.45504  -0.44974
  Beta  occ. eigenvalues --   -0.42967  -0.38877  -0.38432  -0.37940  -0.36141
  Beta  occ. eigenvalues --   -0.28609  -0.28377
  Beta virt. eigenvalues --   -0.07492  -0.06969  -0.03735   0.01072   0.03129
  Beta virt. eigenvalues --    0.03188   0.04558   0.06753   0.07659   0.11400
  Beta virt. eigenvalues --    0.11549   0.13224   0.14650   0.15298   0.17676

 Mulliken charges and spin densities:
               1          2
     1  C    0.113067   0.684475
     2  C    0.211868  -0.000160
     3  C   -0.101910   0.027163
     4  C   -0.006858   0.004909
     5  C    0.012864  -0.006274
     6  C   -0.006827   0.001229
     7  C   -0.086658   0.011239
     8  H    0.035669   0.013566
     9  H    0.030672   0.002185
    10  H    0.031733   0.000609
    11  H    0.029119  -0.000682
    12  H    0.024748   0.018075
    13  O   -0.287486   0.243669
 Sum of Mulliken charges =  -0.00000   1.00000

 Dipole moment (field-independent basis, Debye):
    X=              1.3212    Y=             -3.4272    Z=              0.0000  Tot=              3.6730
 Quadrupole moment (field-independent basis, Debye-Ang):
   XX=            -42.9958   YY=            -49.7354   ZZ=            -48.5298
   XY=              3.4754   XZ=             -0.0000   YZ=              0.0000

  Exact polarizability:  91.751  -8.461 107.825   0.000  -0.000  45.203
 Approx polarizability: 156.539 -15.042 170.112   0.000  -0.000  69.890

                      1                      2                      3
                     A"                     A'                     A"
 Frequencies --    100.0138               208.2429               233.9285
 Red. masses --      7.5252                 6.5982                 6.1863
 Frc consts  --      0.0443                 0.1686                 0.1995
 IR Inten    --      0.3234                 2.5927                 0.0000

                      4                      5                      6
                     A"                     A'                     A"
 Frequencies --    415.9963               442.2841               468.8389
 Red. masses --      2.8747                 8.1384                 3.3858
 Frc consts  --      0.2931                 0.9380                 0.4385
 IR Inten    --      0.0080                 0.2284                 2.5670

                      7                      8                      9
                     A'                     A'                     A"
 Frequencies --    625.0283               637.3520               705.5454
 Red. masses --      6.9829                 7.3936                 2.0766
 Frc consts  --      1.6073                 1.7696                 0.6091
 IR Inten    --     10.0269                12.4043                28.2606

                     10                     11                     12
                     A"                     A'                     A"
 Frequencies --    771.9909               806.6211               870.6921
 Red. masses --      1.5354                 6.6504                 1.2442
 Frc consts  --      0.5391                 2.5494                 0.5558
 IR Inten    --     57.1444                15.8401                 0.0160

                     13                     14                     15
                     A"                     A"                     A'
 Frequencies --    964.3661              1010.6793              1021.2561
 Red. masses --      1.3620                 1.3834                 6.1344
 Frc consts  --      0.7463                 0.8326                 3.7696
 IR Inten    --      3.0269                 0.0004                 0.6042

                     16                     17                     18
                     A"                     A'                     A'
 Frequencies --   1028.6179              1047.0118              1101.4592
 Red. masses --      1.3226                 2.2448                 1.5458
 Frc consts  --      0.8245                 1.4498                 1.1050
 IR Inten    --      0.0130                 2.9686                 5.5589

                     19                     20                     21
                     A'                     A'                     A'
 Frequencies --   1161.3134              1187.2098              1202.3864
 Red. masses --      3.0504                 1.1286                 1.2887
 Frc consts  --      2.4239                 0.9372                 1.0977
 IR Inten    --     61.6549                 0.9177                 1.0251

                     22                     23                     24
                     A'                     A'                     A'
 Frequencies --   1331.3109              1353.1787              1482.4309
 Red. masses --      3.6812                 1.6508                 2.1492
 Frc consts  --      3.8442                 1.7810                 2.7828
 IR Inten    --      5.7114                 4.6844                12.1289

                     25                     26                     27
                     A'                     A'                     A'
 Frequencies --   1516.8772              1616.0077              1631.6985
 Red. masses --      2.0805                 5.2163                 5.4333
 Frc consts  --      2.8204                 8.0260                 8.5231
 IR Inten    --      0.2856                10.4296                16.4338

                     28                     29                     30
                     A'                     A'                     A'
 Frequencies --   1882.1989              3172.1377              3182.0683
 Red. masses --     13.2470                 1.0860                 1.0882
 Frc consts  --     27.6502                 6.4385                 6.4921
 IR Inten    --    299.2885                 0.3878                 3.0312

                     31                     32                     33
                     A'                     A'                     A'
 Frequencies --   3188.7016              3197.1326              3200.6302
 Red. masses --      1.0915                 1.0939                 1.0975
 Frc consts  --      6.5390                 6.5880                 6.6242
 IR Inten    --      5.9821                 9.9530                 8.6463

 - Thermochemistry -
 -------------------
 Temperature   298.150 Kelvin.  Pressure   1.00000 Atm.
 Atom     1 has atomic number  6 and mass  12.00000

 Molecular mass:   105.03404 amu.
 Principal axes and moments of inertia in atomic units:
                           1         2         3
     Eigenvalues --   330.923701144.349881475.27358
           X           -0.37767   0.92594   0.00000
           Y            0.92594   0.37767   0.00000
           Z           -0.00000  -0.00000   1.00000
 This molecule is an asymmetric top.
 Rotational symmetry number  1.
 Rotational temperatures (Kelvin)      0.26173     0.07569     0.05871
 Rotational constants (GHZ):           5.45365     1.57709     1.22333
 Zero-point vibrational energy     255792.7 (Joules/Mol)
                                   61.13593 (Kcal/Mol)
 Warning -- explicit consideration of   6 degrees of freedom as
           vibrations may cause significant error
 Vibrational temperatures:    143.90   299.62   336.57   598.53   636.35
          (Kelvin)            674.55   899.28   917.01  1015.12  1110.72
                             1160.55  1252.73  1387.51  1454.14  1469.36
                             1479.95  1506.42  1584.75  1670.87  1708.13
                             1729.97  1915.46  1946.92  2132.89  2182.45
                             2325.07  2347.65  2708.06  4564.00  4578.29
                             4587.83  4599.96  4604.99

 Zero-point correction=                           0.097426 (Hartree/Particle)
 Thermal correction to Energy=                    0.103774
 Thermal correction to Enthalpy=                  0.104719
 Thermal correction to Gibbs Free Energy=         0.066092
 Sum of electronic and zero-point Energies=           -344.958567
 Sum of electronic and thermal Energies=              -344.952219
 Sum of electronic and thermal Enthalpies=            -344.951275
 Sum of electronic and thermal Free Energies=         -344.989902

                     E (Thermal)             CV                S
                      KCal/Mol        Cal/Mol-Kelvin    Cal/Mol-Kelvin
 Total                   65.119             23.555             81.297
 Electronic               0.000              0.000              1.377
 Translational            0.889              2.981             39.864
 Rotational               0.889              2.981             27.815
 Vibrational             63.342             17.593             12.240
 Vibration     1          0.604              1.949              3.454
 Vibration     2          0.642              1.828              2.059
 Vibration     3          0.654              1.789              1.849
 Vibration     4          0.779              1.435              0.906
 Vibration     5          0.802              1.378              0.819
 Vibration     6          0.826              1.319              0.741

 Optimization completed.
    -- Stationary point found.
 Normal termination of Gaussian 16 at Fri Sep  8 18:07:33 2023.
