 Gaussian 16, Revision B.01,

 ---------------------------------------
 # b3lyp/gen opt freq CPHF(Grid=OneStep)
 ---------------------------------------

 ----------------------
 benzoyl, B3LYP/pcseg-2
 ----------------------
 Symbolic Z-matrix:
 Charge =  0 Multiplicity = 2

 SCF Done:  E(UB3LYP) =  -345.055993464     A.U. after   18 cycles
 Optimization completed.
    -- Stationary point found.
 Normal termination of Gaussian 16 at Sat Sep 30 09:01:36 2023.

 ------------------------------------------------------------------
 #N Geom=AllCheck Guess=TCheck SCRF=Check GenChk UB3LYP/ChkBas Freq
 ------------------------------------------------------------------

 Structure from the checkpoint file:  "phco.chk"
 ----------------------
 benzoyl, B3LYP/pcseg-2
 ----------------------
 Charge =  0 Multiplicity = 2

 SCF Done:  E(UB3LYP) =  -345.055993464     A.U. after    2 cycles

  Exact polarizability:  91.751  -8.460 107.825   0.000   0.000  45.203
 Approx polarizability: 156.539 -15.042 170.111  -0.000  -0.000  69.890

                      1                      2                      3
                     A"                     A'                     A"
 Frequencies --     99.9985               208.2430               233.9127
 Red. masses --      7.5258                 6.5982                 6.1860
 Frc consts  --      0.0443                 0.1686                 0.1994
 IR Inten    --      0.3233                 2.5927                 0.0000

                      4                      5                      6
                     A"                     A'                     A"
 Frequencies --    415.9970               442.2842               468.8386
 Red. masses --      2.8747                 8.1384                 3.3858
 Frc consts  --      0.2931                 0.9380                 0.4385
 IR Inten    --      0.0080                 0.2284                 2.5667

                      7                      8                      9
                     A'                     A'                     A"
 Frequencies --    625.0279               637.3525               705.5463
 Red. masses --      6.9830                 7.3936                 2.0767
 Frc consts  --      1.6073                 1.7696                 0.6091
 IR Inten    --     10.0286                12.4048                28.2598

                     10                     11                     12
                     A"                     A'                     A"
 Frequencies --    771.9916               806.6209               870.6942
 Red. masses --      1.5354                 6.6504                 1.2442
 Frc consts  --      0.5391                 2.5494                 0.5558
 IR Inten    --     57.1440                15.8413                 0.0160

                     13                     14                     15
                     A"                     A"                     A'
 Frequencies --    964.3663              1010.6794              1021.2581
 Red. masses --      1.3620                 1.3834                 6.1345
 Frc consts  --      0.7463                 0.8326                 3.7696
 IR Inten    --      3.0270                 0.0004                 0.6042

                     16                     17                     18
                     A"                     A'                     A'
 Frequencies --   1028.6171              1047.0148              1101.4601
 Red. masses --      1.3226                 2.2448                 1.5459
 Frc consts  --      0.8245                 1.4499                 1.1050
 IR Inten    --      0.0130                 2.9688                 5.5581

                     19                     20                     21
                     A'                     A'                     A'
 Frequencies --   1161.3152              1187.2105              1202.3887
 Red. masses --      3.0505                 1.1285                 1.2887
 Frc consts  --      2.4240                 0.9372                 1.0977
 IR Inten    --     61.6537                 0.9181                 1.0248

                     22                     23                     24
                     A'                     A'                     A'
 Frequencies --   1331.3131              1353.1808              1482.4291
 Red. masses --      3.6816                 1.6507                 2.1492
 Frc consts  --      3.8446                 1.7809                 2.7828
 IR Inten    --      5.7125                 4.6840                12.1292

                     25                     26                     27
                     A'                     A'                     A'
 Frequencies --   1516.8817              1616.0082              1631.6964
 Red. masses --      2.0805                 5.2163                 5.4333
 Frc consts  --      2.8204                 8.0260                 8.5231
 IR Inten    --      0.2854                10.4322                16.4319

                     28                     29                     30
                     A'                     A'                     A'
 Frequencies --   1882.1950              3172.1396              3182.0684
 Red. masses --     13.2470                 1.0860                 1.0882
 Frc consts  --     27.6501                 6.4385                 6.4921
 IR Inten    --    299.2776                 0.3874                 3.0330

                     31                     32                     33
                     A'                     A'                     A'
 Frequencies --   3188.7059              3197.1351              3200.6314
 Red. masses --      1.0915                 1.0939                 1.0975
 Frc consts  --      6.5391                 6.5880                 6.6242
 IR Inten    --      5.9821                 9.9516                 8.6456

 - Thermochemistry -
 -------------------
 Temperature   298.150 Kelvin.  Pressure   1.00000 Atm.
 Atom     1 has atomic number  6 and mass  12.00000

 Molecular mass:   105.03404 amu.
 Principal axes and moments of inertia in atomic units:
                           1         2         3
     Eigenvalues --   330.923611144.349821475.27343
           X           -0.37767   0.92594   0.00000
           Y            0.92594   0.37767   0.00000
           Z           -0.00000   0.00000   1.00000
 This molecule is an asymmetric top.
 Rotational symmetry number  1.
 Rotational temperatures (Kelvin)      0.26173     0.07569     0.05871
 Rotational constants (GHZ):           5.45365     1.57709     1.22333
 Zero-point vibrational energy     255792.7 (Joules/Mol)
                                   61.13593 (Kcal/Mol)
 Warning -- explicit consideration of   6 degrees of freedom as
           vibrations may cause significant error
 Vibrational temperatures:    143.88   299.62   336.55   598.53   636.35
          (Kelvin)            674.55   899.28   917.01  1015.12  1110.72
                             1160.55  1252.73  1387.51  1454.14  1469.36
                             1479.95  1506.42  1584.76  1670.87  1708.13
                             1729.97  1915.46  1946.93  2132.88  2182.45
                             2325.08  2347.65  2708.06  4564.00  4578.29
                             4587.84  4599.96  4604.99

 Zero-point correction=                           0.097426 (Hartree/Particle)
 Thermal correction to Energy=                    0.103774
 Thermal correction to Enthalpy=                  0.104719
 Thermal correction to Gibbs Free Energy=         0.066091
 Sum of electronic and zero-point Energies=           -344.958567
 Sum of electronic and thermal Energies=              -344.952219
 Sum of electronic and thermal Enthalpies=            -344.951275
 Sum of electronic and thermal Free Energies=         -344.989902

                     E (Thermal)             CV                S
                      KCal/Mol        Cal/Mol-Kelvin    Cal/Mol-Kelvin
 Total                   65.119             23.555             81.298
 Electronic               0.000              0.000              1.377
 Translational            0.889              2.981             39.864
 Rotational               0.889              2.981             27.815
 Vibrational             63.342             17.593             12.241
 Vibration     1          0.604              1.949              3.454
 Vibration     2          0.642              1.828              2.059
 Vibration     3          0.654              1.789              1.849
 Vibration     4          0.779              1.435              0.906
 Vibration     5          0.802              1.378              0.819
 Vibration     6          0.826              1.319              0.741

 Optimization completed.
    -- Stationary point found.
 Normal termination of Gaussian 16 at Sat Sep 30 09:32:49 2023.
 Gaussian 16:  ES64L-G16RevB.01 20-Dec-2017

 ---------------------------------
 # rohf/gen geom=check guess=check
 ---------------------------------

 -------------------------
 benzoyl, ROHF/cc-pVTZ-F12
 -------------------------
 Structure from the checkpoint file:  "phco.chk"
 Charge =  0 Multiplicity = 2

                         Standard orientation:
 ---------------------------------------------------------------------
 Center     Atomic      Atomic             Coordinates (Angstroms)
 Number     Number       Type             X           Y           Z
 ---------------------------------------------------------------------
      1          6           0       -0.294066    2.055569    0.000000
      2          6           0        0.000000    0.607638    0.000000
      3          6           0       -1.039768   -0.330894    0.000000
      4          6           0       -0.742159   -1.683861    0.000000
      5          6           0        0.586711   -2.105099    0.000000
      6          6           0        1.620799   -1.175151    0.000000
      7          6           0        1.328269    0.182108    0.000000
      8          1           0       -2.063995    0.015623    0.000000
      9          1           0       -1.540586   -2.413629    0.000000
     10          1           0        0.814288   -3.162742    0.000000
     11          1           0        2.649545   -1.507956    0.000000
     12          1           0        2.117028    0.921972    0.000000
     13          8           0       -1.341874    2.605608    0.000000
 ---------------------------------------------------------------------

 SCF Done:  E(ROHF) =  -342.944645285     A.U. after   21 cycles

 The electronic state is 2-A'.
 Alpha  occ. eigenvalues --  -20.57886 -11.32818 -11.26586 -11.26377 -11.26293
 Alpha  occ. eigenvalues --  -11.26221 -11.25347 -11.25333  -1.41534  -1.17993
 Alpha  occ. eigenvalues --   -1.05345  -1.04133  -0.88009  -0.85138  -0.76924
 Alpha  occ. eigenvalues --   -0.71181  -0.66519  -0.65319  -0.62458  -0.61299
 Alpha  occ. eigenvalues --   -0.57292  -0.54873  -0.53266  -0.51725  -0.51458
 Alpha  occ. eigenvalues --   -0.36415  -0.36019  -0.07925
 Alpha virt. eigenvalues --    0.04003   0.04696   0.05443   0.05659   0.06742
 Alpha virt. eigenvalues --    0.06870   0.07119   0.08831   0.08927   0.09449
 Alpha virt. eigenvalues --    0.09934   0.10099   0.10676   0.11970   0.12117

 Mulliken charges and spin densities:
               1          2
     1  C    0.317919   0.826831
     2  C    0.217413  -0.054800
     3  C   -0.124336  -0.025053
     4  C   -0.109016  -0.009253
     5  C   -0.143638   0.001574
     6  C   -0.178123   0.025391
     7  C   -0.228231   0.058808
     8  H    0.178574   0.000102
     9  H    0.150496   0.001060
    10  H    0.151238  -0.000074
    11  H    0.148348  -0.000045
    12  H    0.161626   0.003584
    13  O   -0.542269   0.171874
 Sum of Mulliken charges =  -0.00000   1.00000

 Dipole moment (field-independent basis, Debye):
    X=              1.8279    Y=             -3.5154    Z=              0.0000  Tot=              3.9622
 Quadrupole moment (field-independent basis, Debye-Ang):
   XX=            -43.3170   YY=            -49.9678   ZZ=            -49.2925
   XY=              5.0378   XZ=              0.0000   YZ=              0.0000

 Normal termination of Gaussian 16 at Sat Sep 30 09:53:39 2023.
