 Gaussian 16, Revision B.01,
 Gaussian 16:  ES64L-G16RevB.01 20-Dec-2017

 --------------------
 # b3lyp/gen opt freq
 --------------------

 ---------------------------
 acetophenone, B3LYP/pcseg-2
 ---------------------------
 Symbolic Z-matrix:
 Charge =  0 Multiplicity = 1

 SCF Done:  E(RB3LYP) =  -385.046195030     A.U. after   14 cycles
 SCF Done:  E(RB3LYP) =  -385.046334993     A.U. after   11 cycles
 SCF Done:  E(RB3LYP) =  -385.046336763     A.U. after    7 cycles
 Optimization completed.
    -- Stationary point found.
 Normal termination of Gaussian 16 at Sun Sep 10 18:13:01 2023.

 ------------------------------------------------------------------
 #N Geom=AllCheck Guess=TCheck SCRF=Check GenChk RB3LYP/ChkBas Freq
 ------------------------------------------------------------------

 Structure from the checkpoint file:  "/wrk/irikura/Gau-101048.chk"
 ---------------------------
 acetophenone, B3LYP/pcseg-2
 ---------------------------
 Charge =  0 Multiplicity = 1

                         Standard orientation:
 ---------------------------------------------------------------------
 Center     Atomic      Atomic             Coordinates (Angstroms)
 Number     Number       Type             X           Y           Z
 ---------------------------------------------------------------------
      1          6           0        1.705600    2.167408    0.000000
      2          6           0        0.269085    1.686537    0.000000
      3          6           0        0.000000    0.211643    0.000000
      4          8           0       -0.646765    2.483484    0.000000
      5          6           0        1.023787   -0.739450    0.000000
      6          6           0       -1.329403   -0.223218    0.000000
      7          6           0        0.725120   -2.096524    0.000000
      8          6           0       -1.627139   -1.576398    0.000000
      9          6           0       -0.599593   -2.516558    0.000000
     10          1           0        1.710747    3.253419    0.000000
     11          1           0        2.238903    1.802309    0.879259
     12          1           0        2.238903    1.802309   -0.879259
     13          1           0        2.058463   -0.428073    0.000000
     14          1           0       -2.112435    0.521467    0.000000
     15          1           0        1.525066   -2.824394    0.000000
     16          1           0       -2.658457   -1.902424    0.000000
     17          1           0       -0.831816   -3.573127    0.000000
 ---------------------------------------------------------------------

 SCF Done:  E(RB3LYP) =  -385.046336763     A.U. after    1 cycles

 The electronic state is 1-A'.
 Alpha  occ. eigenvalues --  -19.11284 -10.26656 -10.19411 -10.19273 -10.19232
 Alpha  occ. eigenvalues --  -10.18952 -10.18766 -10.18658 -10.17830  -1.04694
 Alpha  occ. eigenvalues --   -0.87474  -0.78351  -0.76398  -0.73967  -0.64008
 Alpha  occ. eigenvalues --   -0.62016  -0.56408  -0.52226  -0.47896  -0.46985
 Alpha  occ. eigenvalues --   -0.45865  -0.45333  -0.43890  -0.42606  -0.40125
 Alpha  occ. eigenvalues --   -0.39196  -0.37131  -0.36486  -0.35829  -0.27481
 Alpha  occ. eigenvalues --   -0.27128  -0.26079
 Alpha virt. eigenvalues --   -0.06943  -0.02756   0.00785   0.02294   0.02457
 Alpha virt. eigenvalues --    0.04015   0.05626   0.07371   0.07553   0.07901
 Alpha virt. eigenvalues --    0.09855   0.10727   0.13491   0.14045   0.15857

 Mulliken charges:
               1
     1  C   -0.114387
     2  C    0.337455
     3  C    0.156780
     4  O   -0.417852
     5  C   -0.101055
     6  C   -0.072840
     7  C   -0.044085
     8  C   -0.016791
     9  C    0.004103
    10  H    0.068429
    11  H    0.042627
    12  H    0.042627
    13  H    0.008583
    14  H    0.033098
    15  H    0.021623
    16  H    0.024842
    17  H    0.026843
 Sum of Mulliken charges =  -0.00000

 Dipole moment (field-independent basis, Debye):
    X=              1.8913    Y=             -2.5703    Z=              0.0000  Tot=              3.1912
 Quadrupole moment (field-independent basis, Debye-Ang):
   XX=            -47.9644   YY=            -55.4549   ZZ=            -55.6395
   XY=              5.6739   XZ=              0.0000   YZ=              0.0000

  Exact polarizability: 103.383   5.670 125.364  -0.000   0.000  54.817
 Approx polarizability: 169.780  -5.573 192.172  -0.000  -0.000  86.410

                      1                      2                      3
                     A"                     A"                     A"
 Frequencies --     52.5693               148.4317               152.4588
 Red. masses --      4.0856                 1.0261                 4.4817
 Frc consts  --      0.0067                 0.0133                 0.0614
 IR Inten    --      3.8736                 0.0827                 0.0001

                      4                      5                      6
                     A'                     A'                     A"
 Frequencies --    218.3591               365.5249               413.8909
 Red. masses --      3.9060                 4.5150                 2.8546
 Frc consts  --      0.1097                 0.3554                 0.2881
 IR Inten    --      5.2534                 0.7038                 0.0091

                      7                      8                      9
                     A"                     A'                     A'
 Frequencies --    430.5712               465.3642               597.4208
 Red. masses --      3.2937                 4.5111                 4.3564
 Frc consts  --      0.3598                 0.5756                 0.9161
 IR Inten    --      0.2710                 0.7641                25.3680

                     10                     11                     12
                     A"                     A'                     A"
 Frequencies --    602.0615               634.0819               708.5638
 Red. masses --      2.3631                 6.4007                 1.8236
 Frc consts  --      0.5047                 1.5162                 0.5394
 IR Inten    --     12.8950                 0.9417                38.2227

                     13                     14                     15
                     A'                     A"                     A"
 Frequencies --    742.5814               779.3043               868.9905
 Red. masses --      5.1212                 1.6853                 1.2489
 Frc consts  --      1.6638                 0.6030                 0.5556
 IR Inten    --      0.6446                36.7511                 0.1803

                     16                     17                     18
                     A"                     A'                     A"
 Frequencies --    955.7728               956.8926              1009.4915
 Red. masses --      1.3590                 2.2018                 1.3682
 Frc consts  --      0.7314                 1.1878                 0.8215
 IR Inten    --      2.2265                36.5701                 0.1705

                     19                     20                     21
                     A'                     A"                     A'
 Frequencies --   1021.7150              1026.7329              1047.8939
 Red. masses --      6.2265                 1.3497                 2.4443
 Frc consts  --      3.8296                 0.8383                 1.5814
 IR Inten    --      0.8885                 0.2042                 6.1885

                     22                     23                     24
                     A"                     A'                     A'
 Frequencies --   1047.9858              1094.4327              1108.3373
 Red. masses --      1.8791                 2.2605                 1.5477
 Frc consts  --      1.2159                 1.5952                 1.1201
 IR Inten    --      0.5302                 1.5594                 5.7757

                     25                     26                     27
                     A'                     A'                     A'
 Frequencies --   1185.6541              1202.7384              1272.9978
 Red. masses --      1.1235                 1.1510                 3.6521
 Frc consts  --      0.9306                 0.9810                 3.4870
 IR Inten    --      0.8246                17.2712               180.3088

                     28                     29                     30
                     A'                     A'                     A'
 Frequencies --   1335.7891              1355.3376              1387.2188
 Red. masses --      3.8507                 1.6205                 1.3110
 Frc consts  --      4.0482                 1.7539                 1.4865
 IR Inten    --      6.5414                 1.9708                45.8554

                     31                     32                     33
                     A'                     A"                     A'
 Frequencies --   1470.1095              1479.5088              1483.8358
 Red. masses --      1.0586                 1.0477                 2.1832
 Frc consts  --      1.3480                 1.3512                 2.8322
 IR Inten    --     11.8437                10.7505                15.9383

                     34                     35                     36
                     A'                     A'                     A'
 Frequencies --   1526.0889              1619.9959              1638.3910
 Red. masses --      2.1406                 5.3313                 5.4141
 Frc consts  --      2.9373                 8.2435                 8.5627
 IR Inten    --      0.3722                 8.9801                21.5920

                     37                     38                     39
                     A'                     A'                     A"
 Frequencies --   1746.0357              3039.8674              3096.1287
 Red. masses --     10.7128                 1.0373                 1.0991
 Frc consts  --     19.2425                 5.6478                 6.2076
 IR Inten    --    200.6936                 2.6119                 6.5909

                     40                     41                     42
                     A'                     A'                     A'
 Frequencies --   3147.7961              3170.8318              3181.1587
 Red. masses --      1.1013                 1.0857                 1.0888
 Frc consts  --      6.4296                 6.4315                 6.4919
 IR Inten    --     10.8083                 0.0625                 7.8185

                     43                     44                     45
                     A'                     A'                     A'
 Frequencies --   3191.2303              3201.3527              3205.7328
 Red. masses --      1.0927                 1.0935                 1.0939
 Frc consts  --      6.5564                 6.6027                 6.6231
 IR Inten    --     15.3114                 8.9979                 5.6505

 - Thermochemistry -
 -------------------
 Temperature   298.150 Kelvin.  Pressure   1.00000 Atm.
 Atom     1 has atomic number  6 and mass  12.00000

 Molecular mass:   120.05751 amu.
 Principal axes and moments of inertia in atomic units:
                           1         2         3
     Eigenvalues --   486.022331482.480551957.37335
           X            0.23908   0.97100   0.00000
           Y            0.97100  -0.23908   0.00000
           Z            0.00000  -0.00000   1.00000
 This molecule is an asymmetric top.
 Rotational symmetry number  1.
 Warning -- assumption of classical behavior for rotation
           may cause significant error
 Rotational temperatures (Kelvin)      0.17821     0.05842     0.04425
 Rotational constants (GHZ):           3.71329     1.21738     0.92202
 Zero-point vibrational energy     361195.8 (Joules/Mol)
                                   86.32788 (Kcal/Mol)
 Warning -- explicit consideration of  10 degrees of freedom as
           vibrations may cause significant error
 Vibrational temperatures:     75.64   213.56   219.35   314.17   525.91
          (Kelvin)            595.50   619.50   669.56   859.56   866.23
                              912.30  1019.47  1068.41  1121.25  1250.28
                             1375.14  1376.76  1452.43  1470.02  1477.24
                             1507.69  1507.82  1574.64  1594.65  1705.89
                             1730.47  1831.56  1921.90  1950.03  1995.90
                             2115.16  2128.68  2134.91  2195.70  2330.81
                             2357.28  2512.16  4373.69  4454.64  4528.98
                             4562.12  4576.98  4591.47  4606.03  4612.33

 Zero-point correction=                           0.137572 (Hartree/Particle)
 Thermal correction to Energy=                    0.145440
 Thermal correction to Enthalpy=                  0.146384
 Thermal correction to Gibbs Free Energy=         0.104628
 Sum of electronic and zero-point Energies=           -384.908765
 Sum of electronic and thermal Energies=              -384.900897
 Sum of electronic and thermal Enthalpies=            -384.899953
 Sum of electronic and thermal Free Energies=         -384.941709

                     E (Thermal)             CV                S
                      KCal/Mol        Cal/Mol-Kelvin    Cal/Mol-Kelvin
 Total                   91.265             29.607             87.882
 Electronic               0.000              0.000              0.000
 Translational            0.889              2.981             40.263
 Rotational               0.889              2.981             28.735
 Vibrational             89.487             23.645             18.884
 Vibration     1          0.596              1.977              4.718
 Vibration     2          0.618              1.904              2.692
 Vibration     3          0.619              1.900              2.641
 Vibration     4          0.646              1.813              1.973
 Vibration     5          0.739              1.543              1.099
 Vibration     6          0.777              1.440              0.913
 Vibration     7          0.792              1.404              0.857
 Vibration     8          0.823              1.327              0.751
 Vibration     9          0.955              1.037              0.454
 Vibration    10          0.960              1.027              0.446

 Optimization completed.
    -- Stationary point found.
 Normal termination of Gaussian 16 at Sun Sep 10 18:30:35 2023.
