 Gaussian 16, Revision B.01,

 ---------------------------------------
 # b3lyp/gen opt freq CPHF(Grid=OneStep)
 ---------------------------------------

 ---------------------------
 acetophenone, B3LYP/pcseg-2
 ---------------------------
 Symbolic Z-matrix:
 Charge =  0 Multiplicity = 1

 SCF Done:  E(RB3LYP) =  -385.046336763     A.U. after   14 cycles
 Optimization completed.
    -- Stationary point found.
 Normal termination of Gaussian 16 at Fri Sep 29 03:04:29 2023.

 ------------------------------------------------------------------
 #N Geom=AllCheck Guess=TCheck SCRF=Check GenChk RB3LYP/ChkBas Freq
 ------------------------------------------------------------------

 Structure from the checkpoint file:  "phcoch3.chk"
 ---------------------------
 acetophenone, B3LYP/pcseg-2
 ---------------------------
 Charge =  0 Multiplicity = 1

 SCF Done:  E(RB3LYP) =  -385.046336763     A.U. after    1 cycles

  Exact polarizability: 103.383   5.671 125.364  -0.000   0.000  54.817
 Approx polarizability: 169.780  -5.573 192.172   0.000  -0.000  86.410

                      1                      2                      3
                     A"                     A"                     A"
 Frequencies --     52.5736               148.4318               152.4590
 Red. masses --      4.0856                 1.0261                 4.4811
 Frc consts  --      0.0067                 0.0133                 0.0614
 IR Inten    --      3.8734                 0.0827                 0.0001

                      4                      5                      6
                     A'                     A'                     A"
 Frequencies --    218.3594               365.5259               413.8916
 Red. masses --      3.9061                 4.5149                 2.8546
 Frc consts  --      0.1097                 0.3554                 0.2881
 IR Inten    --      5.2532                 0.7038                 0.0091

                      7                      8                      9
                     A"                     A'                     A'
 Frequencies --    430.5717               465.3624               597.4203
 Red. masses --      3.2937                 4.5110                 4.3563
 Frc consts  --      0.3598                 0.5756                 0.9161
 IR Inten    --      0.2710                 0.7644                25.3676

                     10                     11                     12
                     A"                     A'                     A"
 Frequencies --    602.0625               634.0821               708.5642
 Red. masses --      2.3631                 6.4007                 1.8236
 Frc consts  --      0.5047                 1.5162                 0.5394
 IR Inten    --     12.8941                 0.9416                38.2195

                     13                     14                     15
                     A'                     A"                     A"
 Frequencies --    742.5826               779.3049               868.9928
 Red. masses --      5.1212                 1.6852                 1.2489
 Frc consts  --      1.6638                 0.6030                 0.5556
 IR Inten    --      0.6445                36.7520                 0.1804

                     16                     17                     18
                     A"                     A'                     A"
 Frequencies --    955.7736               956.8778              1009.4916
 Red. masses --      1.3590                 2.2017                 1.3682
 Frc consts  --      0.7314                 1.1877                 0.8215
 IR Inten    --      2.2266                36.5528                 0.1704

                     19                     20                     21
                     A'                     A"                     A'
 Frequencies --   1021.7164              1026.7328              1047.8951
 Red. masses --      6.2265                 1.3497                 2.4444
 Frc consts  --      3.8296                 0.8383                 1.5815
 IR Inten    --      0.8882                 0.2041                 6.1916

                     22                     23                     24
                     A"                     A'                     A'
 Frequencies --   1047.9847              1094.4331              1108.3366
 Red. masses --      1.8791                 2.2605                 1.5477
 Frc consts  --      1.2159                 1.5953                 1.1201
 IR Inten    --      0.5301                 1.5596                 5.7749

                     25                     26                     27
                     A'                     A'                     A'
 Frequencies --   1185.6551              1202.7391              1272.9983
 Red. masses --      1.1235                 1.1510                 3.6521
 Frc consts  --      0.9306                 0.9810                 3.4870
 IR Inten    --      0.8246                17.2768               180.3084

                     28                     29                     30
                     A'                     A'                     A'
 Frequencies --   1335.7890              1355.3363              1387.2183
 Red. masses --      3.8502                 1.6206                 1.3110
 Frc consts  --      4.0477                 1.7540                 1.4865
 IR Inten    --      6.5370                 1.9692                45.8567

                     31                     32                     33
                     A'                     A"                     A'
 Frequencies --   1470.0977              1479.5066              1483.8342
 Red. masses --      1.0586                 1.0477                 2.1832
 Frc consts  --      1.3479                 1.3512                 2.8321
 IR Inten    --     11.8484                10.7505                15.9368

                     34                     35                     36
                     A'                     A'                     A'
 Frequencies --   1526.0919              1619.9949              1638.3894
 Red. masses --      2.1406                 5.3313                 5.4141
 Frc consts  --      2.9373                 8.2435                 8.5627
 IR Inten    --      0.3730                 8.9784                21.5927

                     37                     38                     39
                     A'                     A'                     A"
 Frequencies --   1746.0388              3039.8623              3096.1289
 Red. masses --     10.7126                 1.0373                 1.0991
 Frc consts  --     19.2421                 5.6478                 6.2076
 IR Inten    --    200.6920                 2.6121                 6.5908

                     40                     41                     42
                     A'                     A'                     A'
 Frequencies --   3147.7928              3170.8312              3181.1550
 Red. masses --      1.1013                 1.0857                 1.0888
 Frc consts  --      6.4296                 6.4315                 6.4919
 IR Inten    --     10.8132                 0.0629                 7.8184

                     43                     44                     45
                     A'                     A'                     A'
 Frequencies --   3191.2311              3201.3477              3205.7382
 Red. masses --      1.0927                 1.0935                 1.0938
 Frc consts  --      6.5564                 6.6027                 6.6231
 IR Inten    --     15.3173                 8.9961                 5.6506

 - Thermochemistry -
 -------------------
 Temperature   298.150 Kelvin.  Pressure   1.00000 Atm.
 Atom     1 has atomic number  6 and mass  12.00000

 Molecular mass:   120.05751 amu.
 Principal axes and moments of inertia in atomic units:
                           1         2         3
     Eigenvalues --   486.022341482.480521957.37333
           X            0.23908   0.97100   0.00000
           Y            0.97100  -0.23908   0.00000
           Z           -0.00000  -0.00000   1.00000
 This molecule is an asymmetric top.
 Rotational symmetry number  1.
 Warning -- assumption of classical behavior for rotation
           may cause significant error
 Rotational temperatures (Kelvin)      0.17821     0.05842     0.04425
 Rotational constants (GHZ):           3.71329     1.21738     0.92202
 Zero-point vibrational energy     361195.7 (Joules/Mol)
                                   86.32784 (Kcal/Mol)
 Warning -- explicit consideration of  10 degrees of freedom as
           vibrations may cause significant error
 Vibrational temperatures:     75.64   213.56   219.35   314.17   525.91
          (Kelvin)            595.50   619.50   669.55   859.55   866.23
                              912.30  1019.47  1068.41  1121.25  1250.29
                             1375.15  1376.73  1452.43  1470.02  1477.24
                             1507.69  1507.82  1574.65  1594.65  1705.89
                             1730.47  1831.56  1921.90  1950.03  1995.90
                             2115.14  2128.68  2134.91  2195.71  2330.81
                             2357.28  2512.16  4373.68  4454.64  4528.97
                             4562.12  4576.97  4591.47  4606.03  4612.34

 Zero-point correction=                           0.137572 (Hartree/Particle)
 Thermal correction to Energy=                    0.145440
 Thermal correction to Enthalpy=                  0.146384
 Thermal correction to Gibbs Free Energy=         0.104628
 Sum of electronic and zero-point Energies=           -384.908765
 Sum of electronic and thermal Energies=              -384.900897
 Sum of electronic and thermal Enthalpies=            -384.899953
 Sum of electronic and thermal Free Energies=         -384.941708

                     E (Thermal)             CV                S
                      KCal/Mol        Cal/Mol-Kelvin    Cal/Mol-Kelvin
 Total                   91.265             29.607             87.882
 Electronic               0.000              0.000              0.000
 Translational            0.889              2.981             40.263
 Rotational               0.889              2.981             28.735
 Vibrational             89.487             23.645             18.884
 Vibration     1          0.596              1.977              4.718
 Vibration     2          0.618              1.904              2.692
 Vibration     3          0.619              1.900              2.641
 Vibration     4          0.646              1.813              1.973
 Vibration     5          0.739              1.543              1.099
 Vibration     6          0.777              1.440              0.913
 Vibration     7          0.792              1.404              0.857
 Vibration     8          0.823              1.327              0.751
 Vibration     9          0.955              1.037              0.454
 Vibration    10          0.960              1.027              0.446

 Optimization completed.
    -- Stationary point found.
 Normal termination of Gaussian 16 at Fri Sep 29 03:39:58 2023.
 Gaussian 16:  ES64L-G16RevB.01 20-Dec-2017

 ---------------------------------
 # rohf/gen geom=check guess=check
 ---------------------------------

 ------------------------------
 acetophenone, ROHF/cc-pVTZ-F12
 ------------------------------
 Structure from the checkpoint file:  "phcoch3.chk"
 Charge =  0 Multiplicity = 1

                         Standard orientation:
 ---------------------------------------------------------------------
 Center     Atomic      Atomic             Coordinates (Angstroms)
 Number     Number       Type             X           Y           Z
 ---------------------------------------------------------------------
      1          6           0        1.705599    2.167409    0.000000
      2          6           0        0.269085    1.686537    0.000000
      3          6           0        0.000000    0.211643    0.000000
      4          8           0       -0.646766    2.483484    0.000000
      5          6           0        1.023787   -0.739450    0.000000
      6          6           0       -1.329403   -0.223218    0.000000
      7          6           0        0.725121   -2.096524    0.000000
      8          6           0       -1.627138   -1.576398    0.000000
      9          6           0       -0.599592   -2.516558    0.000000
     10          1           0        1.710746    3.253420    0.000000
     11          1           0        2.238903    1.802310    0.879259
     12          1           0        2.238903    1.802310   -0.879259
     13          1           0        2.058463   -0.428072    0.000000
     14          1           0       -2.112435    0.521466    0.000000
     15          1           0        1.525067   -2.824394    0.000000
     16          1           0       -2.658456   -1.902425    0.000000
     17          1           0       -0.831815   -3.573127    0.000000
 ---------------------------------------------------------------------

 SCF Done:  E(ROHF) =  -382.628155580     A.U. after   13 cycles

 The electronic state is 1-A'.
 Alpha  occ. eigenvalues --  -20.54130 -11.33424 -11.25348 -11.25088 -11.24817
 Alpha  occ. eigenvalues --  -11.24504 -11.24455 -11.24215 -11.23388  -1.38645
 Alpha  occ. eigenvalues --   -1.16854  -1.05373  -1.02992  -0.99792  -0.86581
 Alpha  occ. eigenvalues --   -0.83826  -0.76339  -0.71210  -0.65683  -0.65097
 Alpha  occ. eigenvalues --   -0.62815  -0.60619  -0.60162  -0.59943  -0.55476
 Alpha  occ. eigenvalues --   -0.52680  -0.52362  -0.50423  -0.49320  -0.41905
 Alpha  occ. eigenvalues --   -0.35204  -0.34769
 Alpha virt. eigenvalues --    0.03929   0.04339   0.05407   0.06191   0.06228
 Alpha virt. eigenvalues --    0.07085   0.07468   0.08385   0.08847   0.09069
 Alpha virt. eigenvalues --    0.09553   0.09690   0.10103   0.10828   0.11922

 Mulliken charges and spin densities:
               1          2
     1  C   -0.436129   0.000000
     2  C    0.630511   0.000000
     3  C    0.084059   0.000000
     4  O   -0.671862   0.000000
     5  C   -0.135016   0.000000
     6  C   -0.170425   0.000000
     7  C   -0.164955   0.000000
     8  C   -0.151258   0.000000
     9  C   -0.153315   0.000000
    10  H    0.163852   0.000000
    11  H    0.120446   0.000000
    12  H    0.120446   0.000000
    13  H    0.143711   0.000000
    14  H    0.187331   0.000000
    15  H    0.140166   0.000000
    16  H    0.144972   0.000000
    17  H    0.147464   0.000000
 Sum of Mulliken charges =  -0.00000   0.00000

 Dipole moment (field-independent basis, Debye):
    X=              2.1295    Y=             -2.6960    Z=             -0.0000  Tot=              3.4356
 Quadrupole moment (field-independent basis, Debye-Ang):
   XX=            -47.4298   YY=            -55.7145   ZZ=            -56.4540
   XY=              6.2955   XZ=             -0.0000   YZ=              0.0000

 Normal termination of Gaussian 16 at Fri Sep 29 04:02:05 2023.
