 Gaussian 16, Revision B.01,

 ---------------------------------------
 # b3lyp/gen opt freq CPHF(Grid=OneStep)
 ---------------------------------------

 ---------------------------------
 a,c-dibenzobenzene, B3LYP/pcseg-2
 ---------------------------------
 Symbolic Z-matrix:
 Charge =  0 Multiplicity = 1

 SCF Done:  E(RB3LYP) =  -539.733183392     A.U. after   15 cycles
 Optimization completed.
    -- Stationary point found.
 Normal termination of Gaussian 16 at Fri Sep 29 10:54:55 2023.

 ------------------------------------------------------------------
 #N Geom=AllCheck Guess=TCheck SCRF=Check GenChk RB3LYP/ChkBas Freq
 ------------------------------------------------------------------

 Structure from the checkpoint file:  "phenanthrene.chk"
 ---------------------------------
 a,c-dibenzobenzene, B3LYP/pcseg-2
 ---------------------------------
 Charge =  0 Multiplicity = 1

 SCF Done:  E(RB3LYP) =  -539.733183392     A.U. after    1 cycles

  Exact polarizability:  79.306  -0.000 252.355   0.000   0.000 172.056
 Approx polarizability: 131.884  -0.000 412.041   0.000  -0.000 311.733

                      1                      2                      3
                     A2                     B1                     B1
 Frequencies --     94.6753                99.4552               228.0570
 Red. masses --      3.6564                 4.3431                 3.6487
 Frc consts  --      0.0193                 0.0253                 0.1118
 IR Inten    --      0.0000                 0.8804                 4.0200

                      4                      5                      6
                     A2                     A1                     A2
 Frequencies --    242.1333               247.4809               402.6667
 Red. masses --      4.2180                 4.5804                 3.1268
 Frc consts  --      0.1457                 0.1653                 0.2987
 IR Inten    --      0.0000                 0.4315                 0.0000

                      7                      8                      9
                     A1                     B1                     B2
 Frequencies --    412.5932               438.3690               447.6210
 Red. masses --      6.5067                 3.0348                 4.7346
 Frc consts  --      0.6526                 0.3436                 0.5589
 IR Inten    --      0.5253                 7.7051                 1.8546

                     10                     11                     12
                     B2                     B1                     A2
 Frequencies --    507.6627               508.0429               545.2578
 Red. masses --      5.4319                 3.1920                 2.7280
 Frc consts  --      0.8248                 0.4854                 0.4779
 IR Inten    --      1.0023                 5.3453                 0.0000

                     13                     14                     15
                     A1                     A2                     B2
 Frequencies --    558.8152               603.9667               634.1687
 Red. masses --      7.1659                 3.2149                 6.8937
 Frc consts  --      1.3184                 0.6909                 1.6335
 IR Inten    --      0.2713                 0.0000                 5.2151

                     16                     17                     18
                     A1                     B2                     B1
 Frequencies --    725.7593               729.6121               729.9633
 Red. masses --      5.4683                 5.7885                 2.5968
 Frc consts  --      1.6970                 1.8155                 0.8152
 IR Inten    --      0.0710                 2.1146                 1.2123

                     19                     20                     21
                     B1                     A2                     A2
 Frequencies --    751.6479               772.8449               807.7580
 Red. masses --      1.2632                 1.4771                 2.1299
 Frc consts  --      0.4205                 0.5198                 0.8188
 IR Inten    --     86.8017                 0.0000                 0.0000

                     22                     23                     24
                     B1                     A1                     A2
 Frequencies --    833.9129               846.2736               888.3850
 Red. masses --      1.4226                 5.7359                 2.0884
 Frc consts  --      0.5829                 2.4203                 0.9711
 IR Inten    --     54.3208                 0.0836                 0.0000

                     25                     26                     27
                     B1                     B2                     A2
 Frequencies --    889.1598               891.4444               968.3124
 Red. masses --      1.5259                 3.9663                 1.3693
 Frc consts  --      0.7108                 1.8571                 0.7564
 IR Inten    --     10.7747                 2.0512                 0.0000

                     28                     29                     30
                     B1                     A2                     A2
 Frequencies --    977.8332               994.2513              1004.5973
 Red. masses --      1.3672                 1.3321                 1.3286
 Frc consts  --      0.7702                 0.7759                 0.7900
 IR Inten    --      3.0697                 0.0000                 0.0000

                     31                     32                     33
                     B1                     B2                     A1
 Frequencies --   1005.9017              1021.8125              1062.6633
 Red. masses --      1.3053                 7.3309                 2.5108
 Frc consts  --      0.7782                 4.5097                 1.6706
 IR Inten    --      0.0068                 2.5701                 1.4748

                     34                     35                     36
                     B2                     A1                     B2
 Frequencies --   1062.7471              1118.1903              1168.1352
 Red. masses --      2.0037                 2.3223                 1.3577
 Frc consts  --      1.3333                 1.7108                 1.0916
 IR Inten    --      6.3390                 1.8707                 1.8517

                     37                     38                     39
                     A1                     A1                     B2
 Frequencies --   1174.9559              1187.5206              1191.2029
 Red. masses --      1.2629                 1.3614                 1.0828
 Frc consts  --      1.0272                 1.1312                 0.9052
 IR Inten    --      0.0196                 0.1869                 0.5134

                     40                     41                     42
                     A1                     B2                     A1
 Frequencies --   1225.0678              1244.9559              1267.6183
 Red. masses --      2.1898                 1.8769                 1.5388
 Frc consts  --      1.9363                 1.7140                 1.4568
 IR Inten    --      1.5844                 0.4069                 9.5925

                     43                     44                     45
                     B2                     A1                     B2
 Frequencies --   1309.4246              1326.8173              1366.6580
 Red. masses --      1.7751                 2.9136                 6.8878
 Frc consts  --      1.7932                 3.0221                 7.5797
 IR Inten    --      0.0007                 2.5257                 0.0999

                     46                     47                     48
                     A1                     B2                     A1
 Frequencies --   1374.2775              1450.9005              1452.2331
 Red. masses --      4.3222                 1.8228                 2.8322
 Frc consts  --      4.8096                 2.2608                 3.5192
 IR Inten    --      0.8240                 0.5203                 0.8610

                     49                     50                     51
                     A1                     B2                     B2
 Frequencies --   1475.2459              1495.4255              1536.9398
 Red. masses --      2.2329                 2.1213                 2.9761
 Frc consts  --      2.8632                 2.7950                 4.1420
 IR Inten    --      3.7172                10.5290                 5.9328

                     52                     53                     54
                     A1                     B2                     A1
 Frequencies --   1563.2838              1607.3923              1643.3465
 Red. masses --      3.2228                 6.9263                 5.1063
 Frc consts  --      4.6405                10.5438                 8.1248
 IR Inten    --      1.9642                 0.0710                 1.9455

                     55                     56                     57
                     B2                     A1                     B2
 Frequencies --   1654.0170              1658.8899              3163.5560
 Red. masses --      5.7821                 6.2422                 1.0860
 Frc consts  --      9.3200                10.1210                 6.4037
 IR Inten    --      0.0990                 0.2772                 0.1460

                     58                     59                     60
                     A1                     B2                     B2
 Frequencies --   3166.7742              3167.5077              3176.2969
 Red. masses --      1.0865                 1.0859                 1.0883
 Frc consts  --      6.4196                 6.4192                 6.4690
 IR Inten    --      3.0066                 1.8680                 0.0483

                     61                     62                     63
                     A1                     A1                     B2
 Frequencies --   3177.5291              3182.9588              3190.3454
 Red. masses --      1.0895                 1.0953                 1.0931
 Frc consts  --      6.4811                 6.5379                 6.5551
 IR Inten    --     12.7419                30.3391                36.1564

                     64                     65                     66
                     A1                     B2                     A1
 Frequencies --   3193.1588              3200.2140              3213.2777
 Red. masses --      1.0947                 1.0959                 1.0904
 Frc consts  --      6.5766                 6.6128                 6.6331
 IR Inten    --      0.5103                12.1906                17.8207

 - Thermochemistry -
 -------------------
 Temperature   298.150 Kelvin.  Pressure   1.00000 Atm.
 Atom     1 has atomic number  6 and mass  12.00000

 Molecular mass:   178.07825 amu.
 Principal axes and moments of inertia in atomic units:
                           1         2         3
     Eigenvalues --  1109.408243257.099464366.50771
           X            0.00000   0.00000   1.00000
           Y            1.00000   0.00000  -0.00000
           Z           -0.00000   1.00000   0.00000
 This molecule is an asymmetric top.
 Rotational symmetry number  2.
 Warning -- assumption of classical behavior for rotation
           may cause significant error
 Rotational temperatures (Kelvin)      0.07807     0.02659     0.01984
 Rotational constants (GHZ):           1.62676     0.55409     0.41331
 Zero-point vibrational energy     509967.8 (Joules/Mol)
                                  121.88524 (Kcal/Mol)
 Warning -- explicit consideration of  14 degrees of freedom as
           vibrations may cause significant error
 Vibrational temperatures:    136.22   143.09   328.12   348.38   356.07
          (Kelvin)            579.35   593.63   630.72   644.03   730.41
                              730.96   784.50   804.01   868.97   912.43
                             1044.21  1049.75  1050.25  1081.45  1111.95
                             1162.18  1199.81  1217.60  1278.19  1279.30
                             1282.59  1393.19  1406.88  1430.51  1445.39
                             1447.27  1470.16  1528.94  1529.06  1608.83
                             1680.69  1690.50  1708.58  1713.88  1762.60
                             1791.21  1823.82  1883.97  1908.99  1966.32
                             1977.28  2087.52  2089.44  2122.55  2151.58
                             2211.31  2249.22  2312.68  2364.41  2379.76
                             2386.77  4551.65  4556.28  4557.34  4569.98
                             4571.76  4579.57  4590.20  4594.24  4604.39
                             4623.19

 Zero-point correction=                           0.194236 (Hartree/Particle)
 Thermal correction to Energy=                    0.203678
 Thermal correction to Enthalpy=                  0.204622
 Thermal correction to Gibbs Free Energy=         0.160009
 Sum of electronic and zero-point Energies=           -539.538947
 Sum of electronic and thermal Energies=              -539.529506
 Sum of electronic and thermal Enthalpies=            -539.528562
 Sum of electronic and thermal Free Energies=         -539.573174

                     E (Thermal)             CV                S
                      KCal/Mol        Cal/Mol-Kelvin    Cal/Mol-Kelvin
 Total                  127.810             40.444             93.895
 Electronic               0.000              0.000              0.000
 Translational            0.889              2.981             41.438
 Rotational               0.889              2.981             29.757
 Vibrational            126.032             34.483             22.700
 Vibration     1          0.603              1.953              3.561
 Vibration     2          0.604              1.949              3.465
 Vibration     3          0.651              1.798              1.894
 Vibration     4          0.658              1.776              1.787
 Vibration     5          0.661              1.767              1.748
 Vibration     6          0.768              1.464              0.953
 Vibration     7          0.776              1.443              0.917
 Vibration     8          0.799              1.387              0.832
 Vibration     9          0.807              1.366              0.803
 Vibration    10          0.863              1.233              0.639
 Vibration    11          0.863              1.232              0.638
 Vibration    12          0.900              1.150              0.554
 Vibration    13          0.914              1.120              0.526
 Vibration    14          0.962              1.023              0.443

 Optimization completed.
    -- Stationary point found.
 Normal termination of Gaussian 16 at Fri Sep 29 12:23:17 2023.
 Gaussian 16:  ES64L-G16RevB.01 20-Dec-2017

 ---------------------------------
 # rohf/gen geom=check guess=check
 ---------------------------------

 ------------------------------------
 a,c-dibenzobenzene, ROHF/cc-pVTZ-F12
 ------------------------------------
 Structure from the checkpoint file:  "phenanthrene.chk"
 Charge =  0 Multiplicity = 1

                         Standard orientation:
 ---------------------------------------------------------------------
 Center     Atomic      Atomic             Coordinates (Angstroms)
 Number     Number       Type             X           Y           Z
 ---------------------------------------------------------------------
      1          6           0       -0.000000    0.676523    2.086771
      2          6           0       -0.000000   -0.676523    2.086771
      3          6           0       -0.000000    2.827691    0.875262
      4          6           0       -0.000000    1.417649    0.862398
      5          6           0       -0.000000   -1.417649    0.862398
      6          6           0       -0.000000   -2.827691    0.875262
      7          6           0       -0.000000    3.548272   -0.295157
      8          6           0       -0.000000    0.726888   -0.378955
      9          6           0       -0.000000   -0.726888   -0.378955
     10          6           0       -0.000000   -3.548272   -0.295157
     11          6           0       -0.000000    2.871930   -1.523664
     12          6           0       -0.000000    1.495560   -1.561176
     13          6           0       -0.000000   -1.495560   -1.561176
     14          6           0       -0.000000   -2.871930   -1.523664
     15          1           0       -0.000000    1.226677    3.018887
     16          1           0       -0.000000   -1.226677    3.018887
     17          1           0       -0.000000    3.337096    1.830387
     18          1           0       -0.000000   -3.337096    1.830387
     19          1           0       -0.000000    4.629407   -0.271947
     20          1           0       -0.000000   -4.629407   -0.271947
     21          1           0       -0.000000    3.434175   -2.447586
     22          1           0       -0.000000    1.004636   -2.522614
     23          1           0       -0.000000   -1.004636   -2.522614
     24          1           0       -0.000000   -3.434175   -2.447586
 ---------------------------------------------------------------------

 SCF Done:  E(ROHF) =  -536.207101954     A.U. after   11 cycles

 The electronic state is 1-A1.
 Alpha  occ. eigenvalues --  -11.24829 -11.24743 -11.24409 -11.24408 -11.23644
 Alpha  occ. eigenvalues --  -11.23607 -11.23607 -11.23574 -11.23573 -11.23490
 Alpha  occ. eigenvalues --  -11.23472 -11.23472 -11.23381 -11.23381  -1.18919
 Alpha  occ. eigenvalues --   -1.14699  -1.09620  -1.05485  -1.02978  -0.98975
 Alpha  occ. eigenvalues --   -0.98181  -0.86286  -0.85572  -0.83484  -0.79976
 Alpha  occ. eigenvalues --   -0.73668  -0.71941  -0.68322  -0.66191  -0.65940
 Alpha  occ. eigenvalues --   -0.61177  -0.60138  -0.59552  -0.59398  -0.57782
 Alpha  occ. eigenvalues --   -0.55577  -0.54938  -0.51962  -0.51541  -0.49492
 Alpha  occ. eigenvalues --   -0.48302  -0.47089  -0.43207  -0.38399  -0.35187
 Alpha  occ. eigenvalues --   -0.29698  -0.28536
 Alpha virt. eigenvalues --    0.04414   0.04442   0.04500   0.05626   0.05822
 Alpha virt. eigenvalues --    0.07142   0.07343   0.07446   0.07623   0.07681
 Alpha virt. eigenvalues --    0.08910   0.09064   0.09432   0.09460   0.09832

 Mulliken charges and spin densities:
               1          2
     1  C   -0.284941   0.000000
     2  C   -0.284941   0.000000
     3  C   -0.266785   0.000000
     4  C    0.207226   0.000000
     5  C    0.207226   0.000000
     6  C   -0.266785   0.000000
     7  C   -0.165832   0.000000
     8  C    0.245510   0.000000
     9  C    0.245510   0.000000
    10  C   -0.165832   0.000000
    11  C   -0.182398   0.000000
    12  C   -0.223756   0.000000
    13  C   -0.223756   0.000000
    14  C   -0.182398   0.000000
    15  H    0.130028   0.000000
    16  H    0.130028   0.000000
    17  H    0.134920   0.000000
    18  H    0.134920   0.000000
    19  H    0.137346   0.000000
    20  H    0.137346   0.000000
    21  H    0.138866   0.000000
    22  H    0.129817   0.000000
    23  H    0.129817   0.000000
    24  H    0.138866   0.000000
 Sum of Mulliken charges =  -0.00000   0.00000

 Dipole moment (field-independent basis, Debye):
    X=              0.0000    Y=              0.0000    Z=              0.0048  Tot=              0.0048
 Quadrupole moment (field-independent basis, Debye-Ang):
   XX=            -90.2652   YY=            -71.5267   ZZ=            -71.7150
   XY=              0.0000   XZ=             -0.0000   YZ=             -0.0000

 Normal termination of Gaussian 16 at Fri Sep 29 13:06:01 2023.
