 Gaussian 16, Revision B.01,
 Gaussian 16:  ES64L-G16RevB.01 20-Dec-2017

 --------------------
 # b3lyp/gen opt freq
 --------------------

 ---------------------------------
 a,c-dibenzobenzene, B3LYP/pcseg-2
 ---------------------------------
 Symbolic Z-matrix:
 Charge =  0 Multiplicity = 1

 SCF Done:  E(RB3LYP) =  -539.732951748     A.U. after   17 cycles
 SCF Done:  E(RB3LYP) =  -539.733165898     A.U. after   15 cycles
 SCF Done:  E(RB3LYP) =  -539.733183391     A.U. after    8 cycles
 Optimization completed.
    -- Stationary point found.
 Normal termination of Gaussian 16 at Fri Jun 17 15:25:57 2022.

 ------------------------------------------------------------------
 #N Geom=AllCheck Guess=TCheck SCRF=Check GenChk RB3LYP/ChkBas Freq
 ------------------------------------------------------------------

 Structure from the checkpoint file:  "/wrk/irikura/Gau-14495.chk"
 ---------------------------------
 a,c-dibenzobenzene, B3LYP/pcseg-2
 ---------------------------------
 Charge =  0 Multiplicity = 1

                         Standard orientation:
 ---------------------------------------------------------------------
 Center     Atomic      Atomic             Coordinates (Angstroms)
 Number     Number       Type             X           Y           Z
 ---------------------------------------------------------------------
      1          6           0        0.000000    0.676523    2.086771
      2          6           0       -0.000000   -0.676523    2.086771
      3          6           0        0.000000    2.827691    0.875262
      4          6           0        0.000000    1.417649    0.862398
      5          6           0       -0.000000   -1.417649    0.862398
      6          6           0       -0.000000   -2.827691    0.875262
      7          6           0        0.000000    3.548272   -0.295157
      8          6           0        0.000000    0.726888   -0.378955
      9          6           0       -0.000000   -0.726888   -0.378955
     10          6           0       -0.000000   -3.548272   -0.295157
     11          6           0        0.000000    2.871930   -1.523664
     12          6           0        0.000000    1.495560   -1.561176
     13          6           0       -0.000000   -1.495560   -1.561176
     14          6           0       -0.000000   -2.871930   -1.523664
     15          1           0        0.000000    1.226677    3.018887
     16          1           0       -0.000000   -1.226677    3.018887
     17          1           0        0.000000    3.337096    1.830387
     18          1           0       -0.000000   -3.337096    1.830387
     19          1           0        0.000000    4.629407   -0.271947
     20          1           0       -0.000000   -4.629407   -0.271947
     21          1           0        0.000000    3.434175   -2.447586
     22          1           0        0.000000    1.004636   -2.522614
     23          1           0       -0.000000   -1.004636   -2.522614
     24          1           0       -0.000000   -3.434175   -2.447586
 ---------------------------------------------------------------------

 SCF Done:  E(RB3LYP) =  -539.733183391     A.U. after    1 cycles

 The electronic state is 1-A1.
 Alpha  occ. eigenvalues --  -10.19067 -10.19029 -10.18732 -10.18732 -10.17890
 Alpha  occ. eigenvalues --  -10.17875 -10.17874 -10.17849 -10.17848 -10.17811
 Alpha  occ. eigenvalues --  -10.17804 -10.17804 -10.17744 -10.17744  -0.88935
 Alpha  occ. eigenvalues --   -0.85582  -0.81530  -0.78213  -0.76198  -0.73032
 Alpha  occ. eigenvalues --   -0.72425  -0.63844  -0.63142  -0.61707  -0.58931
 Alpha  occ. eigenvalues --   -0.53877  -0.53685  -0.50335  -0.48532  -0.48227
 Alpha  occ. eigenvalues --   -0.44425  -0.43813  -0.43321  -0.42971  -0.41708
 Alpha  occ. eigenvalues --   -0.41055  -0.39895  -0.37051  -0.36924  -0.36699
 Alpha  occ. eigenvalues --   -0.34086  -0.33111  -0.32483  -0.29433  -0.27232
 Alpha  occ. eigenvalues --   -0.23453  -0.22383
 Alpha virt. eigenvalues --   -0.05075  -0.04689  -0.01185   0.01598   0.01649
 Alpha virt. eigenvalues --    0.02397   0.02426   0.04612   0.04626   0.06160
 Alpha virt. eigenvalues --    0.06584   0.06758   0.09170   0.10651   0.11179

 Mulliken charges:
               1
     1  C   -0.220810
     2  C   -0.220810
     3  C   -0.236504
     4  C    0.428347
     5  C    0.428347
     6  C   -0.236504
     7  C    0.008533
     8  C    0.201330
     9  C    0.201330
    10  C    0.008533
    11  C   -0.080570
    12  C   -0.123134
    13  C   -0.123134
    14  C   -0.080570
    15  H   -0.001208
    16  H   -0.001208
    17  H   -0.000978
    18  H   -0.000978
    19  H    0.017598
    20  H    0.017598
    21  H    0.015099
    22  H   -0.007703
    23  H   -0.007703
    24  H    0.015099
 Sum of Mulliken charges =   0.00000

 Dipole moment (field-independent basis, Debye):
    X=              0.0000    Y=             -0.0000    Z=             -0.0192  Tot=              0.0192
 Quadrupole moment (field-independent basis, Debye-Ang):
   XX=            -88.3004   YY=            -72.0839   ZZ=            -72.1890
   XY=             -0.0000   XZ=             -0.0000   YZ=              0.0000

  Exact polarizability:  79.302   0.000 252.358  -0.000   0.000 172.056
 Approx polarizability: 131.884  -0.000 412.041   0.000  -0.000 311.733

                      1                      2                      3
                     A2                     B1                     B1
 Frequencies --     94.6627                99.4498               228.0518
 Red. masses --      3.6563                 4.3431                 3.6486
 Frc consts  --      0.0193                 0.0253                 0.1118
 IR Inten    --      0.0000                 0.8799                 4.0216

                      4                      5                      6
                     A2                     A1                     A2
 Frequencies --    242.1303               247.4801               402.6654
 Red. masses --      4.2180                 4.5804                 3.1268
 Frc consts  --      0.1457                 0.1653                 0.2987
 IR Inten    --      0.0000                 0.4316                 0.0000

                      7                      8                      9
                     A1                     B1                     B2
 Frequencies --    412.5935               438.3674               447.6219
 Red. masses --      6.5067                 3.0348                 4.7346
 Frc consts  --      0.6526                 0.3436                 0.5589
 IR Inten    --      0.5252                 7.7075                 1.8550

                     10                     11                     12
                     B2                     B1                     A2
 Frequencies --    507.6634               508.0394               545.2544
 Red. masses --      5.4319                 3.1920                 2.7279
 Frc consts  --      0.8248                 0.4854                 0.4778
 IR Inten    --      1.0024                 5.3454                 0.0000

                     13                     14                     15
                     A1                     A2                     B2
 Frequencies --    558.8135               603.9633               634.1680
 Red. masses --      7.1659                 3.2149                 6.8937
 Frc consts  --      1.3184                 0.6909                 1.6335
 IR Inten    --      0.2714                 0.0000                 5.2156

                     16                     17                     18
                     A1                     B2                     B1
 Frequencies --    725.7569               729.6125               729.9587
 Red. masses --      5.4683                 5.7885                 2.5967
 Frc consts  --      1.6970                 1.8155                 0.8152
 IR Inten    --      0.0710                 2.1147                 1.2101

                     19                     20                     21
                     B1                     A2                     A2
 Frequencies --    751.6440               772.8387               807.7537
 Red. masses --      1.2632                 1.4771                 2.1297
 Frc consts  --      0.4205                 0.5198                 0.8187
 IR Inten    --     86.8009                 0.0000                 0.0000

                     22                     23                     24
                     B1                     A1                     A2
 Frequencies --    833.9077               846.2731               888.3811
 Red. masses --      1.4226                 5.7359                 2.0886
 Frc consts  --      0.5829                 2.4203                 0.9712
 IR Inten    --     54.3227                 0.0835                 0.0000

                     25                     26                     27
                     B1                     B2                     A2
 Frequencies --    889.1562               891.4417               968.3092
 Red. masses --      1.5260                 3.9664                 1.3693
 Frc consts  --      0.7108                 1.8571                 0.7564
 IR Inten    --     10.7757                 2.0514                 0.0000

                     28                     29                     30
                     B1                     A2                     A2
 Frequencies --    977.8326               994.2497              1004.5964
 Red. masses --      1.3672                 1.3321                 1.3286
 Frc consts  --      0.7702                 0.7759                 0.7900
 IR Inten    --      3.0707                 0.0000                 0.0000

                     31                     32                     33
                     B1                     B2                     A1
 Frequencies --   1005.9011              1021.8105              1062.6607
 Red. masses --      1.3053                 7.3309                 2.5108
 Frc consts  --      0.7782                 4.5097                 1.6705
 IR Inten    --      0.0069                 2.5702                 1.4741

                     34                     35                     36
                     B2                     A1                     B2
 Frequencies --   1062.7459              1118.1886              1168.1328
 Red. masses --      2.0037                 2.3223                 1.3577
 Frc consts  --      1.3334                 1.7108                 1.0915
 IR Inten    --      6.3380                 1.8697                 1.8522

                     37                     38                     39
                     A1                     A1                     B2
 Frequencies --   1174.9481              1187.5192              1191.2021
 Red. masses --      1.2629                 1.3615                 1.0828
 Frc consts  --      1.0272                 1.1312                 0.9052
 IR Inten    --      0.0198                 0.1867                 0.5132

                     40                     41                     42
                     A1                     B2                     A1
 Frequencies --   1225.0630              1244.9461              1267.6160
 Red. masses --      2.1897                 1.8769                 1.5388
 Frc consts  --      1.9362                 1.7140                 1.4568
 IR Inten    --      1.5854                 0.4069                 9.5901

                     43                     44                     45
                     B2                     A1                     B2
 Frequencies --   1309.4237              1326.8135              1366.6550
 Red. masses --      1.7751                 2.9138                 6.8877
 Frc consts  --      1.7932                 3.0223                 7.5795
 IR Inten    --      0.0006                 2.5258                 0.0996

                     46                     47                     48
                     A1                     B2                     A1
 Frequencies --   1374.2786              1450.8969              1452.2314
 Red. masses --      4.3224                 1.8228                 2.8321
 Frc consts  --      4.8097                 2.2608                 3.5191
 IR Inten    --      0.8237                 0.5212                 0.8608

                     49                     50                     51
                     A1                     B2                     B2
 Frequencies --   1475.2437              1495.4202              1536.9354
 Red. masses --      2.2328                 2.1213                 2.9760
 Frc consts  --      2.8631                 2.7949                 4.1419
 IR Inten    --      3.7178                10.5326                 5.9370

                     52                     53                     54
                     A1                     B2                     A1
 Frequencies --   1563.2825              1607.3931              1643.3485
 Red. masses --      3.2229                 6.9265                 5.1062
 Frc consts  --      4.6405                10.5440                 8.1248
 IR Inten    --      1.9637                 0.0710                 1.9473

                     55                     56                     57
                     B2                     A1                     B2
 Frequencies --   1654.0171              1658.8911              3163.5420
 Red. masses --      5.7821                 6.2422                 1.0860
 Frc consts  --      9.3201                10.1210                 6.4036
 IR Inten    --      0.0991                 0.2777                 0.1454

                     58                     59                     60
                     A1                     B2                     B2
 Frequencies --   3166.7650              3167.5049              3176.2927
 Red. masses --      1.0865                 1.0859                 1.0883
 Frc consts  --      6.4196                 6.4192                 6.4690
 IR Inten    --      3.0059                 1.8696                 0.0482

                     61                     62                     63
                     A1                     A1                     B2
 Frequencies --   3177.5230              3182.9540              3190.3439
 Red. masses --      1.0895                 1.0953                 1.0931
 Frc consts  --      6.4811                 6.5378                 6.5551
 IR Inten    --     12.7178                30.3695                36.1643

                     64                     65                     66
                     A1                     B2                     A1
 Frequencies --   3193.1575              3200.2134              3213.2815
 Red. masses --      1.0947                 1.0959                 1.0904
 Frc consts  --      6.5766                 6.6128                 6.6331
 IR Inten    --      0.5112                12.1879                17.8220

 - Thermochemistry -
 -------------------
 Temperature   298.150 Kelvin.  Pressure   1.00000 Atm.
 Atom     1 has atomic number  6 and mass  12.00000

 Molecular mass:   178.07825 amu.
 Principal axes and moments of inertia in atomic units:
                           1         2         3
     Eigenvalues --  1109.408043257.099114366.50715
           X            0.00000   0.00000   1.00000
           Y            1.00000   0.00000   0.00000
           Z           -0.00000   1.00000   0.00000
 This molecule is an asymmetric top.
 Rotational symmetry number  2.
 Warning -- assumption of classical behavior for rotation
           may cause significant error
 Rotational temperatures (Kelvin)      0.07807     0.02659     0.01984
 Rotational constants (GHZ):           1.62676     0.55409     0.41331
 Zero-point vibrational energy     509966.7 (Joules/Mol)
                                  121.88497 (Kcal/Mol)
 Warning -- explicit consideration of  14 degrees of freedom as
           vibrations may cause significant error
 Vibrational temperatures:    136.20   143.09   328.12   348.37   356.07
          (Kelvin)            579.35   593.63   630.71   644.03   730.41
                              730.96   784.50   804.01   868.97   912.43
                             1044.20  1049.75  1050.25  1081.45  1111.94
                             1162.18  1199.81  1217.60  1278.18  1279.30
                             1282.59  1393.18  1406.88  1430.50  1445.39
                             1447.27  1470.16  1528.93  1529.05  1608.82
                             1680.68  1690.49  1708.58  1713.87  1762.59
                             1791.20  1823.82  1883.97  1908.99  1966.31
                             1977.28  2087.52  2089.44  2122.55  2151.58
                             2211.31  2249.21  2312.68  2364.41  2379.76
                             2386.77  4551.63  4556.27  4557.33  4569.98
                             4571.75  4579.56  4590.19  4594.24  4604.39
                             4623.20

 Zero-point correction=                           0.194236 (Hartree/Particle)
 Thermal correction to Energy=                    0.203677
 Thermal correction to Enthalpy=                  0.204621
 Thermal correction to Gibbs Free Energy=         0.160008
 Sum of electronic and zero-point Energies=           -539.538947
 Sum of electronic and thermal Energies=              -539.529506
 Sum of electronic and thermal Enthalpies=            -539.528562
 Sum of electronic and thermal Free Energies=         -539.573175

                     E (Thermal)             CV                S
                      KCal/Mol        Cal/Mol-Kelvin    Cal/Mol-Kelvin
 Total                  127.809             40.444             93.896
 Electronic               0.000              0.000              0.000
 Translational            0.889              2.981             41.438
 Rotational               0.889              2.981             29.757
 Vibrational            126.032             34.483             22.701
 Vibration     1          0.603              1.953              3.561
 Vibration     2          0.604              1.949              3.465
 Vibration     3          0.651              1.798              1.894
 Vibration     4          0.658              1.776              1.787
 Vibration     5          0.661              1.767              1.748
 Vibration     6          0.768              1.464              0.953
 Vibration     7          0.776              1.443              0.917
 Vibration     8          0.799              1.387              0.832
 Vibration     9          0.807              1.366              0.803
 Vibration    10          0.863              1.233              0.639
 Vibration    11          0.863              1.232              0.638
 Vibration    12          0.900              1.150              0.554
 Vibration    13          0.914              1.120              0.526
 Vibration    14          0.962              1.023              0.443

 Optimization completed.
    -- Stationary point found.
 Normal termination of Gaussian 16 at Fri Jun 17 15:50:16 2022.
