 Gaussian 16, Revision B.01,
 Gaussian 16:  ES64L-G16RevB.01 20-Dec-2017

 --------------------
 # b3lyp/gen opt freq
 --------------------

 ---------------------------
 ethylbenzene, B3LYP/pcseg-2
 ---------------------------
 Symbolic Z-matrix:
 Charge =  0 Multiplicity = 1

 SCF Done:  E(RB3LYP) =  -311.000217446     A.U. after   12 cycles
 SCF Done:  E(RB3LYP) =  -311.000352681     A.U. after    8 cycles
 SCF Done:  E(RB3LYP) =  -311.000353911     A.U. after    6 cycles
 Optimization completed.
    -- Stationary point found.
 Normal termination of Gaussian 16 at Thu Jun 16 14:24:39 2022.

 ------------------------------------------------------------------
 #N Geom=AllCheck Guess=TCheck SCRF=Check GenChk RB3LYP/ChkBas Freq
 ------------------------------------------------------------------

 Structure from the checkpoint file:  "/wrk/irikura/Gau-9741.chk"
 ---------------------------
 ethylbenzene, B3LYP/pcseg-2
 ---------------------------
 Charge =  0 Multiplicity = 1

                         Standard orientation:
 ---------------------------------------------------------------------
 Center     Atomic      Atomic             Coordinates (Angstroms)
 Number     Number       Type             X           Y           Z
 ---------------------------------------------------------------------
      1          6           0       -0.231834    0.489120    0.000000
      2          6           0       -0.234039   -0.228181    1.197577
      3          6           0       -0.234039   -1.618318    1.200736
      4          6           0       -0.232788   -2.319124   -0.000000
      5          6           0       -0.234039   -1.618318   -1.200736
      6          6           0       -0.234039   -0.228181   -1.197577
      7          6           0       -0.192422    1.998686    0.000000
      8          6           0        1.235439    2.562449    0.000000
      9          1           0       -0.241170    0.308625    2.138558
     10          1           0       -0.239653   -2.154078    2.140857
     11          1           0       -0.236186   -3.400787   -0.000000
     12          1           0       -0.239653   -2.154078   -2.140857
     13          1           0       -0.241170    0.308625   -2.138558
     14          1           0       -0.726725    2.374599   -0.875188
     15          1           0       -0.726725    2.374599    0.875188
     16          1           0        1.787011    2.230144    0.880270
     17          1           0        1.787011    2.230144   -0.880270
     18          1           0        1.223836    3.653415    0.000000
 ---------------------------------------------------------------------

 SCF Done:  E(RB3LYP) =  -311.000353911     A.U. after    1 cycles

 The electronic state is 1-A'.
 Alpha  occ. eigenvalues --  -10.17995 -10.17419 -10.17338 -10.17329 -10.17131
 Alpha  occ. eigenvalues --  -10.17108 -10.17105 -10.16327  -0.86036  -0.78908
 Alpha  occ. eigenvalues --   -0.74657  -0.72485  -0.63587  -0.60761  -0.57921
 Alpha  occ. eigenvalues --   -0.51436  -0.47121  -0.46046  -0.43318  -0.42662
 Alpha  occ. eigenvalues --   -0.41928  -0.39969  -0.37669  -0.35697  -0.35556
 Alpha  occ. eigenvalues --   -0.33691  -0.33474  -0.25699  -0.24842
 Alpha virt. eigenvalues --   -0.01403  -0.01328   0.01500   0.03040   0.03651
 Alpha virt. eigenvalues --    0.05058   0.05938   0.06299   0.08155   0.09785
 Alpha virt. eigenvalues --    0.10518   0.10814   0.12325   0.13337   0.15061

 Mulliken charges:
               1
     1  C    0.281244
     2  C   -0.166582
     3  C    0.003305
     4  C   -0.028563
     5  C    0.003305
     6  C   -0.166582
     7  C   -0.055059
     8  C   -0.046788
     9  H   -0.004131
    10  H    0.016389
    11  H    0.017884
    12  H    0.016389
    13  H   -0.004131
    14  H    0.027723
    15  H    0.027723
    16  H    0.024750
    17  H    0.024750
    18  H    0.028373
 Sum of Mulliken charges =  -0.00000

 Dipole moment (field-independent basis, Debye):
    X=              0.0529    Y=              0.3931    Z=             -0.0000  Tot=              0.3966
 Quadrupole moment (field-independent basis, Debye-Ang):
   XX=            -53.2965   YY=            -45.8265   ZZ=            -45.8260
   XY=             -0.1130   XZ=             -0.0000   YZ=              0.0000

  Exact polarizability:  62.909   5.558 117.066  -0.000  -0.000  96.318
 Approx polarizability:  93.149   1.805 169.166   0.000  -0.000 161.191

                      1                      2                      3
                     A"                     A'                     A"
 Frequencies --     39.6235               135.5210               217.9743
 Red. masses --      2.4032                 3.3017                 1.1011
 Frc consts  --      0.0022                 0.0357                 0.0308
 IR Inten    --      0.0088                 0.8393                 0.0240

                      4                      5                      6
                     A'                     A"                     A"
 Frequencies --    311.3326               355.7891               416.4616
 Red. masses --      3.2607                 2.0246                 2.8599
 Frc consts  --      0.1862                 0.1510                 0.2922
 IR Inten    --      0.1649                 0.1143                 0.0008

                      7                      8                      9
                     A'                     A'                     A"
 Frequencies --    501.5533               568.7678               638.7989
 Red. masses --      3.7517                 3.1014                 6.3385
 Frc consts  --      0.5560                 0.5911                 1.5239
 IR Inten    --      5.6320                 8.1717                 0.0367

                     10                     11                     12
                     A'                     A'                     A'
 Frequencies --    718.3568               769.5558               787.2810
 Red. masses --      1.6366                 2.5551                 2.5417
 Frc consts  --      0.4976                 0.8915                 0.9282
 IR Inten    --     44.6518                20.0141                 9.7116

                     13                     14                     15
                     A"                     A"                     A'
 Frequencies --    792.6053               861.0266               930.4264
 Red. masses --      1.1621                 1.2483                 1.4056
 Frc consts  --      0.4301                 0.5452                 0.7170
 IR Inten    --      0.5595                 0.0237                 1.7684

                     16                     17                     18
                     A'                     A"                     A'
 Frequencies --    970.3718               992.8496              1011.5034
 Red. masses --      2.4710                 1.3772                 1.2993
 Frc consts  --      1.3709                 0.7999                 0.7833
 IR Inten    --      1.3705                 0.0016                 0.0600

                     19                     20                     21
                     A'                     A'                     A"
 Frequencies --   1022.6663              1052.9389              1056.5559
 Red. masses --      6.2512                 2.2121                 1.5424
 Frc consts  --      3.8519                 1.4450                 1.0144
 IR Inten    --      0.0004                 4.0207                 2.6594

                     22                     23                     24
                     A'                     A"                     A"
 Frequencies --   1082.2915              1121.5486              1182.7492
 Red. masses --      1.8942                 1.4295                 1.1189
 Frc consts  --      1.3073                 1.0594                 0.9222
 IR Inten    --      6.6148                 3.3965                 0.0405

                     25                     26                     27
                     A'                     A'                     A"
 Frequencies --   1204.6141              1226.1383              1272.5839
 Red. masses --      1.1459                 2.6076                 1.4115
 Frc consts  --      0.9797                 2.3097                 1.3468
 IR Inten    --      0.2456                 0.2320                 0.0033

                     28                     29                     30
                     A"                     A'                     A"
 Frequencies --   1339.6081              1353.4796              1367.4497
 Red. masses --      3.6783                 1.4821                 1.2789
 Frc consts  --      3.8892                 1.5996                 1.4090
 IR Inten    --      0.1870                 1.8784                 0.3524

                     31                     32                     33
                     A'                     A"                     A'
 Frequencies --   1409.9075              1488.6407              1489.8563
 Red. masses --      1.2122                 2.1514                 1.0591
 Frc consts  --      1.4197                 2.8089                 1.3851
 IR Inten    --      2.2455                 4.7489                 0.8368

                     34                     35                     36
                     A"                     A'                     A'
 Frequencies --   1495.6226              1508.6894              1532.1768
 Red. masses --      1.0398                 1.0878                 2.1873
 Frc consts  --      1.3704                 1.4588                 3.0253
 IR Inten    --      9.1016                 3.9443                11.9028

                     37                     38                     39
                     A"                     A'                     A'
 Frequencies --   1623.3048              1644.3808              3028.9394
 Red. masses --      5.3688                 5.5256                 1.0432
 Frc consts  --      8.3354                 8.8031                 5.6390
 IR Inten    --      0.7559                 6.5438                26.4214

                     40                     41                     42
                     A'                     A"                     A'
 Frequencies --   3029.6539              3059.6575              3093.3198
 Red. masses --      1.0502                 1.1031                 1.1017
 Frc consts  --      5.6793                 6.0844                 6.2110
 IR Inten    --     34.2125                 6.7607                42.6741

                     43                     44                     45
                     A"                     A'                     A"
 Frequencies --   3098.9098              3156.4429              3157.5149
 Red. masses --      1.1031                 1.0863                 1.0875
 Frc consts  --      6.2416                 6.3765                 6.3878
 IR Inten    --     32.1419                 9.6193                 5.9942

                     46                     47                     48
                     A'                     A"                     A'
 Frequencies --   3171.4404              3179.9750              3192.5656
 Red. masses --      1.0892                 1.0932                 1.0973
 Frc consts  --      6.4546                 6.5132                 6.5895
 IR Inten    --      4.8176                31.7752                14.8586

 - Thermochemistry -
 -------------------
 Temperature   298.150 Kelvin.  Pressure   1.00000 Atm.
 Atom     1 has atomic number  6 and mass  12.00000

 Molecular mass:   106.07825 amu.
 Principal axes and moments of inertia in atomic units:
                           1         2         3
     Eigenvalues --   394.549531235.309141487.73252
           X            0.19834  -0.00000   0.98013
           Y            0.98013  -0.00000  -0.19834
           Z            0.00000   1.00000   0.00000
 This molecule is an asymmetric top.
 Rotational symmetry number  1.
 Rotational temperatures (Kelvin)      0.21953     0.07012     0.05822
 Rotational constants (GHZ):           4.57418     1.46096     1.21308
 Zero-point vibrational energy     410698.5 (Joules/Mol)
                                   98.15929 (Kcal/Mol)
 Warning -- explicit consideration of   8 degrees of freedom as
           vibrations may cause significant error
 Vibrational temperatures:     57.01   194.98   313.62   447.94   511.90
          (Kelvin)            599.20   721.62   818.33   919.09  1033.56
                             1107.22  1132.72  1140.38  1238.83  1338.68
                             1396.15  1428.49  1455.33  1471.39  1514.94
                             1520.15  1557.18  1613.66  1701.71  1733.17
                             1764.14  1830.96  1927.40  1947.36  1967.46
                             2028.54  2141.82  2143.57  2151.87  2170.67
                             2204.46  2335.57  2365.90  4357.97  4359.00
                             4402.16  4450.60  4458.64  4541.42  4542.96
                             4563.00  4575.27  4593.39

 Zero-point correction=                           0.156427 (Hartree/Particle)
 Thermal correction to Energy=                    0.163764
 Thermal correction to Enthalpy=                  0.164708
 Thermal correction to Gibbs Free Energy=         0.124212
 Sum of electronic and zero-point Energies=           -310.843927
 Sum of electronic and thermal Energies=              -310.836590
 Sum of electronic and thermal Enthalpies=            -310.835646
 Sum of electronic and thermal Free Energies=         -310.876142

                     E (Thermal)             CV                S
                      KCal/Mol        Cal/Mol-Kelvin    Cal/Mol-Kelvin
 Total                  102.763             27.889             85.230
 Electronic               0.000              0.000              0.000
 Translational            0.889              2.981             39.894
 Rotational               0.889              2.981             28.074
 Vibrational            100.986             21.927             17.262
 Vibration     1          0.594              1.981              5.278
 Vibration     2          0.613              1.918              2.866
 Vibration     3          0.646              1.814              1.976
 Vibration     4          0.700              1.652              1.355
 Vibration     5          0.731              1.563              1.140
 Vibration     6          0.780              1.434              0.904
 Vibration     7          0.857              1.247              0.654
 Vibration     8          0.925              1.099              0.507

 Optimization completed.
    -- Stationary point found.
 Normal termination of Gaussian 16 at Thu Jun 16 14:33:22 2022.
