 Gaussian 16, Revision B.01,

 ---------------------------------------
 # b3lyp/gen opt freq CPHF(Grid=OneStep)
 ---------------------------------------

 ---------------------------
 ethylbenzene, B3LYP/pcseg-2
 ---------------------------
 Symbolic Z-matrix:
 Charge =  0 Multiplicity = 1

 SCF Done:  E(RB3LYP) =  -311.000353911     A.U. after   12 cycles
 Optimization completed.
    -- Stationary point found.
 Normal termination of Gaussian 16 at Sat Sep 30 07:07:45 2023.

 ------------------------------------------------------------------
 #N Geom=AllCheck Guess=TCheck SCRF=Check GenChk RB3LYP/ChkBas Freq
 ------------------------------------------------------------------

 Structure from the checkpoint file:  "PhEt.chk"
 ---------------------------
 ethylbenzene, B3LYP/pcseg-2
 ---------------------------
 Charge =  0 Multiplicity = 1

 SCF Done:  E(RB3LYP) =  -311.000353911     A.U. after    1 cycles

  Exact polarizability:  62.910   5.558 117.065  -0.000  -0.000  96.319
 Approx polarizability:  93.149   1.805 169.166   0.000  -0.000 161.191

                      1                      2                      3
                     A"                     A'                     A"
 Frequencies --     39.6286               135.5245               217.9753
 Red. masses --      2.4032                 3.3018                 1.1011
 Frc consts  --      0.0022                 0.0357                 0.0308
 IR Inten    --      0.0088                 0.8395                 0.0240

                      4                      5                      6
                     A'                     A"                     A"
 Frequencies --    311.3335               355.7874               416.4611
 Red. masses --      3.2607                 2.0246                 2.8599
 Frc consts  --      0.1862                 0.1510                 0.2922
 IR Inten    --      0.1651                 0.1143                 0.0008

                      7                      8                      9
                     A'                     A'                     A"
 Frequencies --    501.5536               568.7666               638.7964
 Red. masses --      3.7517                 3.1013                 6.3385
 Frc consts  --      0.5561                 0.5911                 1.5239
 IR Inten    --      5.6310                 8.1716                 0.0367

                     10                     11                     12
                     A'                     A'                     A'
 Frequencies --    718.3609               769.5589               787.2821
 Red. masses --      1.6366                 2.5552                 2.5416
 Frc consts  --      0.4976                 0.8916                 0.9281
 IR Inten    --     44.6523                20.0132                 9.7144

                     13                     14                     15
                     A"                     A"                     A'
 Frequencies --    792.6033               861.0344               930.4294
 Red. masses --      1.1621                 1.2483                 1.4056
 Frc consts  --      0.4301                 0.5453                 0.7170
 IR Inten    --      0.5595                 0.0237                 1.7672

                     16                     17                     18
                     A'                     A"                     A'
 Frequencies --    970.3730               992.8480              1011.5047
 Red. masses --      2.4710                 1.3772                 1.2993
 Frc consts  --      1.3709                 0.7999                 0.7833
 IR Inten    --      1.3699                 0.0016                 0.0601

                     19                     20                     21
                     A'                     A'                     A"
 Frequencies --   1022.6668              1052.9420              1056.5583
 Red. masses --      6.2511                 2.2122                 1.5424
 Frc consts  --      3.8519                 1.4450                 1.0145
 IR Inten    --      0.0004                 4.0227                 2.6615

                     22                     23                     24
                     A'                     A"                     A"
 Frequencies --   1082.2901              1121.5570              1182.7520
 Red. masses --      1.8942                 1.4295                 1.1189
 Frc consts  --      1.3073                 1.0594                 0.9222
 IR Inten    --      6.6165                 3.3957                 0.0404

                     25                     26                     27
                     A'                     A'                     A"
 Frequencies --   1204.6158              1226.1473              1272.5883
 Red. masses --      1.1459                 2.6073                 1.4115
 Frc consts  --      0.9797                 2.3095                 1.3468
 IR Inten    --      0.2459                 0.2322                 0.0033

                     28                     29                     30
                     A"                     A'                     A"
 Frequencies --   1339.6110              1353.4788              1367.4510
 Red. masses --      3.6778                 1.4821                 1.2789
 Frc consts  --      3.8887                 1.5996                 1.4090
 IR Inten    --      0.1870                 1.8778                 0.3522

                     31                     32                     33
                     A'                     A"                     A'
 Frequencies --   1409.9063              1488.6429              1489.8643
 Red. masses --      1.2122                 2.1514                 1.0591
 Frc consts  --      1.4197                 2.8090                 1.3851
 IR Inten    --      2.2450                 4.7434                 0.8370

                     34                     35                     36
                     A"                     A'                     A'
 Frequencies --   1495.6131              1508.6949              1532.1851
 Red. masses --      1.0398                 1.0878                 2.1873
 Frc consts  --      1.3704                 1.4588                 3.0254
 IR Inten    --      9.1045                 3.9423                11.8934

                     37                     38                     39
                     A"                     A'                     A'
 Frequencies --   1623.3045              1644.3780              3028.9413
 Red. masses --      5.3687                 5.5256                 1.0430
 Frc consts  --      8.3352                 8.8030                 5.6379
 IR Inten    --      0.7556                 6.5423                26.4892

                     40                     41                     42
                     A'                     A"                     A'
 Frequencies --   3029.6593              3059.6704              3093.3170
 Red. masses --      1.0504                 1.1031                 1.1017
 Frc consts  --      5.6805                 6.0845                 6.2110
 IR Inten    --     34.1409                 6.7543                42.6913

                     43                     44                     45
                     A"                     A'                     A"
 Frequencies --   3098.9021              3156.4563              3157.5304
 Red. masses --      1.1031                 1.0863                 1.0875
 Frc consts  --      6.2416                 6.3766                 6.3879
 IR Inten    --     32.1507                 9.6003                 5.9860

                     46                     47                     48
                     A'                     A"                     A'
 Frequencies --   3171.4453              3179.9822              3192.5660
 Red. masses --      1.0892                 1.0932                 1.0973
 Frc consts  --      6.4546                 6.5132                 6.5895
 IR Inten    --      4.8216                31.7752                14.8547

 - Thermochemistry -
 -------------------
 Temperature   298.150 Kelvin.  Pressure   1.00000 Atm.
 Atom     1 has atomic number  6 and mass  12.00000

 Molecular mass:   106.07825 amu.
 Principal axes and moments of inertia in atomic units:
                           1         2         3
     Eigenvalues --   394.549631235.308951487.73240
           X            0.19834   0.00000   0.98013
           Y            0.98013   0.00000  -0.19834
           Z           -0.00000   1.00000  -0.00000
 This molecule is an asymmetric top.
 Rotational symmetry number  1.
 Rotational temperatures (Kelvin)      0.21953     0.07012     0.05822
 Rotational constants (GHZ):           4.57418     1.46096     1.21308
 Zero-point vibrational energy     410699.2 (Joules/Mol)
                                   98.15946 (Kcal/Mol)
 Warning -- explicit consideration of   8 degrees of freedom as
           vibrations may cause significant error
 Vibrational temperatures:     57.02   194.99   313.62   447.94   511.90
          (Kelvin)            599.19   721.62   818.33   919.09  1033.56
                             1107.22  1132.72  1140.38  1238.84  1338.68
                             1396.15  1428.49  1455.33  1471.39  1514.95
                             1520.15  1557.17  1613.67  1701.72  1733.17
                             1764.15  1830.97  1927.40  1947.35  1967.46
                             2028.54  2141.83  2143.58  2151.85  2170.68
                             2204.47  2335.57  2365.89  4357.97  4359.00
                             4402.18  4450.59  4458.63  4541.44  4542.98
                             4563.00  4575.29  4593.39

 Zero-point correction=                           0.156427 (Hartree/Particle)
 Thermal correction to Energy=                    0.163764
 Thermal correction to Enthalpy=                  0.164708
 Thermal correction to Gibbs Free Energy=         0.124213
 Sum of electronic and zero-point Energies=           -310.843927
 Sum of electronic and thermal Energies=              -310.836590
 Sum of electronic and thermal Enthalpies=            -310.835646
 Sum of electronic and thermal Free Energies=         -310.876141

                     E (Thermal)             CV                S
                      KCal/Mol        Cal/Mol-Kelvin    Cal/Mol-Kelvin
 Total                  102.763             27.889             85.230
 Electronic               0.000              0.000              0.000
 Translational            0.889              2.981             39.894
 Rotational               0.889              2.981             28.074
 Vibrational            100.986             21.927             17.262
 Vibration     1          0.594              1.981              5.278
 Vibration     2          0.613              1.918              2.866
 Vibration     3          0.646              1.814              1.976
 Vibration     4          0.700              1.652              1.355
 Vibration     5          0.731              1.563              1.140
 Vibration     6          0.780              1.434              0.904
 Vibration     7          0.857              1.247              0.654
 Vibration     8          0.925              1.099              0.507

 Optimization completed.
    -- Stationary point found.
 Normal termination of Gaussian 16 at Sat Sep 30 07:41:07 2023.
 Gaussian 16:  ES64L-G16RevB.01 20-Dec-2017

 ---------------------------------
 # rohf/gen geom=check guess=check
 ---------------------------------

 ------------------------------
 ethylbenzene, ROHF/cc-pVTZ-F12
 ------------------------------
 Structure from the checkpoint file:  "PhEt.chk"
 Charge =  0 Multiplicity = 1

                         Standard orientation:
 ---------------------------------------------------------------------
 Center     Atomic      Atomic             Coordinates (Angstroms)
 Number     Number       Type             X           Y           Z
 ---------------------------------------------------------------------
      1          6           0       -0.231834    0.489120    0.000000
      2          6           0       -0.234039   -0.228181    1.197577
      3          6           0       -0.234039   -1.618318    1.200736
      4          6           0       -0.232788   -2.319124   -0.000000
      5          6           0       -0.234039   -1.618318   -1.200736
      6          6           0       -0.234039   -0.228181   -1.197577
      7          6           0       -0.192422    1.998686    0.000000
      8          6           0        1.235439    2.562449    0.000000
      9          1           0       -0.241170    0.308625    2.138558
     10          1           0       -0.239653   -2.154078    2.140857
     11          1           0       -0.236186   -3.400787   -0.000000
     12          1           0       -0.239653   -2.154078   -2.140857
     13          1           0       -0.241170    0.308625   -2.138558
     14          1           0       -0.726725    2.374599   -0.875188
     15          1           0       -0.726725    2.374599    0.875188
     16          1           0        1.787011    2.230144    0.880270
     17          1           0        1.787011    2.230144   -0.880270
     18          1           0        1.223836    3.653415    0.000000
 ---------------------------------------------------------------------

 SCF Done:  E(ROHF) =  -308.895102236     A.U. after   11 cycles

 The electronic state is 1-A'.
 Alpha  occ. eigenvalues --  -11.23593 -11.23058 -11.23040 -11.22664 -11.22656
 Alpha  occ. eigenvalues --  -11.22625 -11.22613 -11.21479  -1.15373  -1.06185
 Alpha  occ. eigenvalues --   -1.01131  -0.98175  -0.86391  -0.82473  -0.78795
 Alpha  occ. eigenvalues --   -0.69275  -0.64103  -0.63451  -0.59236  -0.58674
 Alpha  occ. eigenvalues --   -0.57819  -0.54591  -0.52121  -0.49987  -0.48521
 Alpha  occ. eigenvalues --   -0.47781  -0.47302  -0.33439  -0.32425
 Alpha virt. eigenvalues --    0.04267   0.04937   0.05281   0.05334   0.06666
 Alpha virt. eigenvalues --    0.06983   0.08259   0.08738   0.09136   0.09304
 Alpha virt. eigenvalues --    0.09974   0.10535   0.10537   0.12288   0.12370

 Mulliken charges and spin densities:
               1          2
     1  C    0.343057   0.000000
     2  C   -0.208258   0.000000
     3  C   -0.157016   0.000000
     4  C   -0.173044   0.000000
     5  C   -0.157016   0.000000
     6  C   -0.208258   0.000000
     7  C   -0.284321   0.000000
     8  C   -0.284093   0.000000
     9  H    0.127686   0.000000
    10  H    0.138536   0.000000
    11  H    0.138211   0.000000
    12  H    0.138536   0.000000
    13  H    0.127686   0.000000
    14  H    0.094728   0.000000
    15  H    0.094728   0.000000
    16  H    0.091345   0.000000
    17  H    0.091345   0.000000
    18  H    0.086149   0.000000
 Sum of Mulliken charges =  -0.00000   0.00000

 Dipole moment (field-independent basis, Debye):
    X=              0.0543    Y=              0.4184    Z=             -0.0000  Tot=              0.4219
 Quadrupole moment (field-independent basis, Debye-Ang):
   XX=            -54.0687   YY=            -45.6176   ZZ=            -45.5146
   XY=             -0.1372   XZ=              0.0000   YZ=              0.0000

 Normal termination of Gaussian 16 at Sat Sep 30 07:51:17 2023.
