 Gaussian 16, Revision B.01,

 ---------------------------------------
 # b3lyp/gen opt freq CPHF(Grid=OneStep)
 ---------------------------------------

 ----------------------------
 fluorobenzene, B3LYP/pcseg-2
 ----------------------------
 Symbolic Z-matrix:
 Charge =  0 Multiplicity = 1

 SCF Done:  E(RB3LYP) =  -331.620001188     A.U. after   13 cycles
 Optimization completed.
    -- Stationary point found.
 Normal termination of Gaussian 16 at Wed Sep 27 22:33:27 2023.

 ------------------------------------------------------------------
 #N Geom=AllCheck Guess=TCheck SCRF=Check GenChk RB3LYP/ChkBas Freq
 ------------------------------------------------------------------

 Structure from the checkpoint file:  "phf.chk"
 ----------------------------
 fluorobenzene, B3LYP/pcseg-2
 ----------------------------
 Charge =  0 Multiplicity = 1

 SCF Done:  E(RB3LYP) =  -331.620001188     A.U. after    1 cycles

  Exact polarizability:  38.939   0.000  77.785  -0.000   0.000  79.968
 Approx polarizability:  59.405   0.000 127.214   0.000  -0.000 131.328

                      1                      2                      3
                     B1                     B2                     A2
 Frequencies --    237.8711               407.7418               425.0773
 Red. masses --      5.3206                 6.1728                 2.9951
 Frc consts  --      0.1774                 0.6047                 0.3189
 IR Inten    --      0.0703                 2.0373                 0.0000

                      4                      5                      6
                     B1                     A1                     B2
 Frequencies --    510.8890               527.0016               629.8813
 Red. masses --      2.8453                 8.6226                 6.5322
 Frc consts  --      0.4376                 1.4109                 1.5270
 IR Inten    --     10.7432                 5.6436                 0.2008

                      7                      8                      9
                     B1                     B1                     A1
 Frequencies --    700.4860               772.5874               825.0756
 Red. masses --      2.4105                 1.5338                 6.2471
 Frc consts  --      0.6969                 0.5394                 2.5056
 IR Inten    --     21.4248                71.3513                28.0835

                     10                     11                     12
                     A2                     B1                     A2
 Frequencies --    836.2638               916.4146               980.3620
 Red. masses --      1.2445                 1.4333                 1.3494
 Frc consts  --      0.5128                 0.7092                 0.7641
 IR Inten    --      0.0000                 8.6237                 0.0000

                     13                     14                     15
                     B1                     A1                     A1
 Frequencies --    996.5428              1024.0620              1041.7162
 Red. masses --      1.2660                 6.1779                 2.0081
 Frc consts  --      0.7407                 3.8172                 1.2839
 IR Inten    --      0.1028                 0.2647                 3.9928

                     16                     17                     18
                     B2                     A1                     B2
 Frequencies --   1092.7900              1179.0439              1181.5968
 Red. masses --      1.4680                 1.1846                 1.1318
 Frc consts  --      1.0329                 0.9702                 0.9310
 IR Inten    --      7.1901                14.6997                 0.2086

                     19                     20                     21
                     A1                     B2                     B2
 Frequencies --   1246.4545              1326.5328              1348.3012
 Red. masses --      3.9284                 2.7715                 1.9211
 Frc consts  --      3.5960                 2.8734                 2.0576
 IR Inten    --    107.1022                 0.2757                 0.6581

                     22                     23                     24
                     B2                     A1                     A1
 Frequencies --   1492.1597              1529.1502              1635.6498
 Red. masses --      2.1976                 2.3250                 5.6916
 Frc consts  --      2.8829                 3.2031                 8.9716
 IR Inten    --      0.9913                78.4284                49.7287

                     25                     26                     27
                     B2                     A1                     B2
 Frequencies --   1642.4677              3175.7442              3184.3061
 Red. masses --      6.3915                 1.0857                 1.0892
 Frc consts  --     10.1589                 6.4513                 6.5072
 IR Inten    --      9.2292                 0.1087                 8.0828

                     28                     29                     30
                     A1                     B2                     A1
 Frequencies --   3196.2359              3204.7685              3206.9477
 Red. masses --      1.0926                 1.0939                 1.0964
 Frc consts  --      6.5762                 6.6192                 6.6438
 IR Inten    --     14.8774                 4.4185                 0.2643

 - Thermochemistry -
 -------------------
 Temperature   298.150 Kelvin.  Pressure   1.00000 Atm.
 Atom     1 has atomic number  9 and mass  18.99840

 Molecular mass:    96.03753 amu.
 Principal axes and moments of inertia in atomic units:
                           1         2         3
     Eigenvalues --   316.00740 701.092631017.10003
           X            0.00000  -0.00000   1.00000
           Y            0.00000   1.00000   0.00000
           Z            1.00000  -0.00000   0.00000
 This molecule is an asymmetric top.
 Rotational symmetry number  2.
 Rotational temperatures (Kelvin)      0.27409     0.12354     0.08516
 Rotational constants (GHZ):           5.71107     2.57418     1.77440
 Zero-point vibrational energy     242089.0 (Joules/Mol)
                                   57.86066 (Kcal/Mol)
 Warning -- explicit consideration of   5 degrees of freedom as
           vibrations may cause significant error
 Vibrational temperatures:    342.24   586.65   611.59   735.06   758.24
          (Kelvin)            906.26  1007.84  1111.58  1187.10  1203.20
                             1318.52  1410.52  1433.80  1473.40  1498.80
                             1572.28  1696.38  1700.05  1793.37  1908.58
                             1939.90  2146.88  2200.11  2353.34  2363.14
                             4569.19  4581.51  4598.67  4610.95  4614.08

 Zero-point correction=                           0.092207 (Hartree/Particle)
 Thermal correction to Energy=                    0.097338
 Thermal correction to Enthalpy=                  0.098282
 Thermal correction to Gibbs Free Energy=         0.064048
 Sum of electronic and zero-point Energies=           -331.527794
 Sum of electronic and thermal Energies=              -331.522663
 Sum of electronic and thermal Enthalpies=            -331.521719
 Sum of electronic and thermal Free Energies=         -331.555954

                     E (Thermal)             CV                S
                      KCal/Mol        Cal/Mol-Kelvin    Cal/Mol-Kelvin
 Total                   61.080             20.067             72.053
 Electronic               0.000              0.000              0.000
 Translational            0.889              2.981             39.597
 Rotational               0.889              2.981             25.536
 Vibrational             59.303             14.106              6.920
 Vibration     1          0.656              1.783              1.819
 Vibration     2          0.772              1.453              0.935
 Vibration     3          0.787              1.416              0.875
 Vibration     4          0.866              1.226              0.631
 Vibration     5          0.882              1.190              0.594

 Optimization completed.
    -- Stationary point found.
 Normal termination of Gaussian 16 at Wed Sep 27 22:43:45 2023.
 Gaussian 16:  ES64L-G16RevB.01 20-Dec-2017

 ---------------------------------
 # rohf/gen geom=check guess=check
 ---------------------------------

 -------------------------------
 fluorobenzene, ROHF/cc-pVTZ-F12
 -------------------------------
 Structure from the checkpoint file:  "phf.chk"
 Charge =  0 Multiplicity = 1

                         Standard orientation:
 ---------------------------------------------------------------------
 Center     Atomic      Atomic             Coordinates (Angstroms)
 Number     Number       Type             X           Y           Z
 ---------------------------------------------------------------------
      1          9           0        0.000000   -0.000000    2.277442
      2          6           0        0.000000   -0.000000    0.925178
      3          6           0        0.000000    1.212656    0.259016
      4          6           0       -0.000000   -1.212656    0.259016
      5          6           0        0.000000    1.203600   -1.131714
      6          6           0       -0.000000   -1.203600   -1.131714
      7          6           0       -0.000000    0.000000   -1.828895
      8          1           0        0.000000    2.134369    0.822971
      9          1           0       -0.000000   -2.134369    0.822971
     10          1           0        0.000000    2.142011   -1.669173
     11          1           0       -0.000000   -2.142011   -1.669173
     12          1           0       -0.000000    0.000000   -2.909892
 ---------------------------------------------------------------------

 SCF Done:  E(ROHF) =  -329.691569745     A.U. after   12 cycles

 The electronic state is 1-A1.
 Alpha  occ. eigenvalues --  -26.30477 -11.32829 -11.24974 -11.24968 -11.24352
 Alpha  occ. eigenvalues --  -11.24350 -11.23962  -1.62256  -1.16715  -1.03459
 Alpha  occ. eigenvalues --   -1.02440  -0.85690  -0.84243  -0.74572  -0.70023
 Alpha  occ. eigenvalues --   -0.69177  -0.68846  -0.62540  -0.60777  -0.59674
 Alpha  occ. eigenvalues --   -0.53277  -0.51213  -0.50925  -0.35343  -0.34228
 Alpha virt. eigenvalues --    0.04694   0.04995   0.05775   0.06948   0.07188
 Alpha virt. eigenvalues --    0.08230   0.09307   0.09330   0.09928   0.10341
 Alpha virt. eigenvalues --    0.11137   0.11758   0.12177   0.12451   0.12723

 Mulliken charges and spin densities:
               1          2
     1  F   -0.428913   0.000000
     2  C    0.337607   0.000000
     3  C   -0.143609   0.000000
     4  C   -0.143609   0.000000
     5  C   -0.128226   0.000000
     6  C   -0.128226   0.000000
     7  C   -0.165245   0.000000
     8  H    0.178839   0.000000
     9  H    0.178839   0.000000
    10  H    0.148754   0.000000
    11  H    0.148754   0.000000
    12  H    0.145035   0.000000
 Sum of Mulliken charges =  -0.00000   0.00000

 Dipole moment (field-independent basis, Debye):
    X=             -0.0000    Y=             -0.0000    Z=             -1.8038  Tot=              1.8038
 Quadrupole moment (field-independent basis, Debye-Ang):
   XX=            -44.0027   YY=            -34.2785   ZZ=            -41.3284
   XY=              0.0000   XZ=              0.0000   YZ=             -0.0000

 Normal termination of Gaussian 16 at Wed Sep 27 22:48:13 2023.
