 Gaussian 16, Revision B.01,
 Gaussian 16:  ES64L-G16RevB.01 20-Dec-2017

 --------------------
 # b3lyp/gen opt freq
 --------------------

 ----------------------------
 fluorobenzene, B3LYP/pcseg-2
 ----------------------------
 Symbolic Z-matrix:
 Charge =  0 Multiplicity = 1

 SCF Done:  E(RB3LYP) =  -331.619791652     A.U. after   12 cycles
 SCF Done:  E(RB3LYP) =  -331.619978351     A.U. after    8 cycles
 SCF Done:  E(RB3LYP) =  -331.620000095     A.U. after    8 cycles
 SCF Done:  E(RB3LYP) =  -331.620001188     A.U. after    7 cycles
 Optimization completed.
    -- Stationary point found.
 Normal termination of Gaussian 16 at Wed Jun 15 15:50:32 2022.

 ------------------------------------------------------------------
 #N Geom=AllCheck Guess=TCheck SCRF=Check GenChk RB3LYP/ChkBas Freq
 ------------------------------------------------------------------

 Structure from the checkpoint file:  "/wrk/irikura/Gau-17482.chk"
 ----------------------------
 fluorobenzene, B3LYP/pcseg-2
 ----------------------------
 Charge =  0 Multiplicity = 1

                         Standard orientation:
 ---------------------------------------------------------------------
 Center     Atomic      Atomic             Coordinates (Angstroms)
 Number     Number       Type             X           Y           Z
 ---------------------------------------------------------------------
      1          9           0        0.000000    0.000000    2.277442
      2          6           0        0.000000    0.000000    0.925178
      3          6           0        0.000000    1.212656    0.259016
      4          6           0       -0.000000   -1.212656    0.259016
      5          6           0        0.000000    1.203600   -1.131714
      6          6           0       -0.000000   -1.203600   -1.131714
      7          6           0        0.000000   -0.000000   -1.828895
      8          1           0        0.000000    2.134369    0.822971
      9          1           0       -0.000000   -2.134369    0.822971
     10          1           0        0.000000    2.142011   -1.669173
     11          1           0       -0.000000   -2.142011   -1.669173
     12          1           0        0.000000   -0.000000   -2.909892
 ---------------------------------------------------------------------

 SCF Done:  E(RB3LYP) =  -331.620001188     A.U. after    1 cycles

 The electronic state is 1-A1.
 Alpha  occ. eigenvalues --  -24.68966 -10.26449 -10.19017 -10.19015 -10.18702
 Alpha  occ. eigenvalues --  -10.18702 -10.18317  -1.22805  -0.87298  -0.76703
 Alpha  occ. eigenvalues --   -0.75772  -0.63319  -0.62146  -0.55561  -0.50583
 Alpha  occ. eigenvalues --   -0.49774  -0.47457  -0.45632  -0.44249  -0.40928
 Alpha  occ. eigenvalues --   -0.38223  -0.37477  -0.35760  -0.27361  -0.25929
 Alpha virt. eigenvalues --   -0.02898  -0.01635   0.01442   0.03632   0.04648
 Alpha virt. eigenvalues --    0.06669   0.07001   0.09856   0.12858   0.15300
 Alpha virt. eigenvalues --    0.16026   0.16825   0.17215   0.19285   0.19718

 Mulliken charges:
               1
     1  F   -0.295670
     2  C    0.405922
     3  C   -0.110836
     4  C   -0.110836
     5  C   -0.005619
     6  C   -0.005619
     7  C   -0.032153
     8  H    0.036284
     9  H    0.036284
    10  H    0.028868
    11  H    0.028868
    12  H    0.024508
 Sum of Mulliken charges =   0.00000

 Dipole moment (field-independent basis, Debye):
    X=              0.0000    Y=              0.0000    Z=             -1.6018  Tot=              1.6018
 Quadrupole moment (field-independent basis, Debye-Ang):
   XX=            -43.3353   YY=            -34.8273   ZZ=            -41.0954
   XY=              0.0000   XZ=              0.0000   YZ=             -0.0000

  Exact polarizability:  38.939  -0.000  77.785   0.000   0.000  79.969
 Approx polarizability:  59.405   0.000 127.214   0.000   0.000 131.328

                      1                      2                      3
                     B1                     B2                     A2
 Frequencies --    237.8709               407.7449               425.0791
 Red. masses --      5.3206                 6.1728                 2.9951
 Frc consts  --      0.1774                 0.6047                 0.3189
 IR Inten    --      0.0704                 2.0373                 0.0000

                      4                      5                      6
                     B1                     A1                     B2
 Frequencies --    510.8887               527.0000               629.8829
 Red. masses --      2.8453                 8.6226                 6.5322
 Frc consts  --      0.4376                 1.4109                 1.5270
 IR Inten    --     10.7448                 5.6428                 0.2008

                      7                      8                      9
                     B1                     B1                     A1
 Frequencies --    700.4876               772.5851               825.0707
 Red. masses --      2.4104                 1.5338                 6.2471
 Frc consts  --      0.6969                 0.5394                 2.5056
 IR Inten    --     21.4243                71.3467                28.0838

                     10                     11                     12
                     A2                     B1                     A2
 Frequencies --    836.2558               916.4129               980.3630
 Red. masses --      1.2445                 1.4333                 1.3494
 Frc consts  --      0.5128                 0.7092                 0.7641
 IR Inten    --      0.0000                 8.6256                 0.0000

                     13                     14                     15
                     B1                     A1                     A1
 Frequencies --    996.5416              1024.0611              1041.7141
 Red. masses --      1.2660                 6.1776                 2.0081
 Frc consts  --      0.7407                 3.8170                 1.2839
 IR Inten    --      0.1028                 0.2650                 3.9912

                     16                     17                     18
                     B2                     A1                     B2
 Frequencies --   1092.7873              1179.0405              1181.5952
 Red. masses --      1.4680                 1.1846                 1.1318
 Frc consts  --      1.0329                 0.9702                 0.9310
 IR Inten    --      7.1899                14.7060                 0.2089

                     19                     20                     21
                     A1                     B2                     B2
 Frequencies --   1246.4452              1326.5334              1348.2985
 Red. masses --      3.9281                 2.7715                 1.9211
 Frc consts  --      3.5956                 2.8735                 2.0576
 IR Inten    --    107.0967                 0.2753                 0.6579

                     22                     23                     24
                     B2                     A1                     A1
 Frequencies --   1492.1567              1529.1435              1635.6516
 Red. masses --      2.1976                 2.3249                 5.6917
 Frc consts  --      2.8829                 3.2030                 8.9716
 IR Inten    --      0.9923                78.4419                49.7245

                     25                     26                     27
                     B2                     A1                     B2
 Frequencies --   1642.4698              3175.7422              3184.3045
 Red. masses --      6.3915                 1.0857                 1.0892
 Frc consts  --     10.1590                 6.4513                 6.5072
 IR Inten    --      9.2284                 0.1087                 8.0837

                     28                     29                     30
                     A1                     B2                     A1
 Frequencies --   3196.2343              3204.7656              3206.9459
 Red. masses --      1.0926                 1.0939                 1.0964
 Frc consts  --      6.5762                 6.6192                 6.6438
 IR Inten    --     14.8805                 4.4184                 0.2646

 - Thermochemistry -
 -------------------
 Temperature   298.150 Kelvin.  Pressure   1.00000 Atm.
 Atom     1 has atomic number  9 and mass  18.99840

 Molecular mass:    96.03753 amu.
 Principal axes and moments of inertia in atomic units:
                           1         2         3
     Eigenvalues --   316.00731 701.092861017.10017
           X            0.00000   0.00000   1.00000
           Y            0.00000   1.00000  -0.00000
           Z            1.00000  -0.00000   0.00000
 This molecule is an asymmetric top.
 Rotational symmetry number  2.
 Rotational temperatures (Kelvin)      0.27409     0.12354     0.08516
 Rotational constants (GHZ):           5.71107     2.57418     1.77440
 Zero-point vibrational energy     242088.7 (Joules/Mol)
                                   57.86059 (Kcal/Mol)
 Warning -- explicit consideration of   5 degrees of freedom as
           vibrations may cause significant error
 Vibrational temperatures:    342.24   586.65   611.59   735.05   758.24
          (Kelvin)            906.26  1007.85  1111.58  1187.09  1203.19
                             1318.51  1410.52  1433.80  1473.40  1498.79
                             1572.28  1696.38  1700.05  1793.36  1908.59
                             1939.90  2146.88  2200.10  2353.34  2363.15
                             4569.18  4581.50  4598.67  4610.94  4614.08

 Zero-point correction=                           0.092207 (Hartree/Particle)
 Thermal correction to Energy=                    0.097338
 Thermal correction to Enthalpy=                  0.098282
 Thermal correction to Gibbs Free Energy=         0.064047
 Sum of electronic and zero-point Energies=           -331.527794
 Sum of electronic and thermal Energies=              -331.522663
 Sum of electronic and thermal Enthalpies=            -331.521719
 Sum of electronic and thermal Free Energies=         -331.555954

                     E (Thermal)             CV                S
                      KCal/Mol        Cal/Mol-Kelvin    Cal/Mol-Kelvin
 Total                   61.080             20.067             72.053
 Electronic               0.000              0.000              0.000
 Translational            0.889              2.981             39.597
 Rotational               0.889              2.981             25.536
 Vibrational             59.303             14.106              6.920
 Vibration     1          0.656              1.783              1.819
 Vibration     2          0.772              1.453              0.935
 Vibration     3          0.787              1.416              0.875
 Vibration     4          0.866              1.226              0.631
 Vibration     5          0.882              1.190              0.594

 Optimization completed.
    -- Stationary point found.
 Normal termination of Gaussian 16 at Wed Jun 15 15:52:47 2022.
