 Gaussian 16, Revision B.01,

 ---------------------------------------
 # b3lyp/gen opt freq CPHF(Grid=OneStep)
 ---------------------------------------

 --------------------------------
 phenyl isocyanide, B3LYP/pcseg-2
 --------------------------------
 Symbolic Z-matrix:
 Charge =  0 Multiplicity = 1

 SCF Done:  E(RB3LYP) =  -324.581889221     A.U. after   13 cycles
 Optimization completed.
    -- Stationary point found.
 Normal termination of Gaussian 16 at Sat Sep 30 02:54:07 2023.

 ------------------------------------------------------------------
 #N Geom=AllCheck Guess=TCheck SCRF=Check GenChk RB3LYP/ChkBas Freq
 ------------------------------------------------------------------

 Structure from the checkpoint file:  "phnc.chk"
 --------------------------------
 phenyl isocyanide, B3LYP/pcseg-2
 --------------------------------
 Charge =  0 Multiplicity = 1

 SCF Done:  E(RB3LYP) =  -324.581889221     A.U. after    1 cycles

  Exact polarizability:  47.165   0.000  84.839   0.000  -0.000 123.726
 Approx polarizability:  72.762   0.000 140.910   0.000  -0.000 194.527

                      1                      2                      3
                     B1                     B2                     B1
 Frequencies --    146.6009               160.7903               338.4137
 Red. masses --      6.0519                 7.3549                 6.1585
 Frc consts  --      0.0766                 0.1120                 0.4155
 IR Inten    --      1.5338                 2.8622                 0.1722

                      4                      5                      6
                     A2                     A1                     B2
 Frequencies --    417.2384               482.8514               491.1587
 Red. masses --      2.9100                 8.3062                 7.2568
 Frc consts  --      0.2985                 1.1410                 1.0314
 IR Inten    --      0.0000                 0.1467                 1.1315

                      7                      8                      9
                     B1                     B2                     B1
 Frequencies --    529.7197               637.0946               705.1345
 Red. masses --      3.2718                 6.5643                 2.0850
 Frc consts  --      0.5409                 1.5698                 0.6108
 IR Inten    --      8.6750                 0.0247                27.6305

                     10                     11                     12
                     B1                     A1                     A2
 Frequencies --    778.9724               786.4342               854.8955
 Red. masses --      1.6278                 6.0557                 1.2466
 Frc consts  --      0.5820                 2.2067                 0.5368
 IR Inten    --     58.7774                 6.3859                 0.0000

                     13                     14                     15
                     B1                     A2                     B1
 Frequencies --    942.6415               997.0680              1016.8769
 Red. masses --      1.4194                 1.3655                 1.3028
 Frc consts  --      0.7431                 0.7998                 0.7937
 IR Inten    --      5.8351                 0.0000                 0.0738

                     16                     17                     18
                     A1                     A1                     B2
 Frequencies --   1022.1397              1048.9355              1103.7090
 Red. masses --      6.2307                 2.1715                 1.5317
 Frc consts  --      3.8354                 1.4077                 1.0993
 IR Inten    --      0.0082                 3.9959                 6.4024

                     19                     20                     21
                     B2                     A1                     A1
 Frequencies --   1186.5476              1194.1293              1220.9941
 Red. masses --      1.1252                 1.2693                 3.0114
 Frc consts  --      0.9333                 1.0664                 2.6451
 IR Inten    --      0.0123                 2.0493                 7.8711

                     22                     23                     24
                     B2                     B2                     B2
 Frequencies --   1321.4121              1358.2441              1489.4972
 Red. masses --      4.5610                 1.4896                 2.2070
 Frc consts  --      4.6923                 1.6191                 2.8850
 IR Inten    --      1.8694                 0.0177                 2.6403

                     25                     26                     27
                     A1                     B2                     A1
 Frequencies --   1525.8608              1622.1988              1638.8185
 Red. masses --      2.1899                 5.6477                 5.4886
 Frc consts  --      3.0040                 8.7565                 8.6851
 IR Inten    --     24.3674                 4.1742                 6.4708

                     28                     29                     30
                     A1                     A1                     B2
 Frequencies --   2200.5473              3178.3817              3187.7526
 Red. masses --     12.9991                 1.0861                 1.0892
 Frc consts  --     37.0872                 6.4642                 6.5213
 IR Inten    --    193.3844                 0.0138                 5.5571

                     31                     32                     33
                     A1                     B2                     A1
 Frequencies --   3197.6776              3207.1614              3209.3823
 Red. masses --      1.0930                 1.0941                 1.0967
 Frc consts  --      6.5846                 6.6306                 6.6552
 IR Inten    --     10.8351                 4.2296                 0.9713

 - Thermochemistry -
 -------------------
 Temperature   298.150 Kelvin.  Pressure   1.00000 Atm.
 Atom     1 has atomic number  6 and mass  12.00000

 Molecular mass:   103.04220 amu.
 Principal axes and moments of inertia in atomic units:
                           1         2         3
     Eigenvalues --   316.131151097.035781413.16694
           X            0.00000   0.00000   1.00000
           Y            0.00000   1.00000  -0.00000
           Z            1.00000  -0.00000  -0.00000
 This molecule is an asymmetric top.
 Rotational symmetry number  2.
 Rotational temperatures (Kelvin)      0.27398     0.07895     0.06129
 Rotational constants (GHZ):           5.70884     1.64511     1.27709
 Zero-point vibrational energy     258389.1 (Joules/Mol)
                                   61.75647 (Kcal/Mol)
 Warning -- explicit consideration of   7 degrees of freedom as
           vibrations may cause significant error
 Vibrational temperatures:    210.93   231.34   486.90   600.31   694.72
          (Kelvin)            706.67   762.15   916.64  1014.53  1120.77
                             1131.50  1230.00  1356.25  1434.56  1463.06
                             1470.63  1509.18  1587.99  1707.18  1718.09
                             1756.74  1901.22  1954.21  2143.05  2195.37
                             2333.98  2357.89  3166.10  4572.98  4586.46
                             4600.74  4614.39  4617.59

 Zero-point correction=                           0.098415 (Hartree/Particle)
 Thermal correction to Energy=                    0.104634
 Thermal correction to Enthalpy=                  0.105578
 Thermal correction to Gibbs Free Energy=         0.068758
 Sum of electronic and zero-point Energies=           -324.483474
 Sum of electronic and thermal Energies=              -324.477256
 Sum of electronic and thermal Enthalpies=            -324.476311
 Sum of electronic and thermal Free Energies=         -324.513132

                     E (Thermal)             CV                S
                      KCal/Mol        Cal/Mol-Kelvin    Cal/Mol-Kelvin
 Total                   65.659             23.491             77.495
 Electronic               0.000              0.000              0.000
 Translational            0.889              2.981             39.807
 Rotational               0.889              2.981             26.308
 Vibrational             63.881             17.529             11.380
 Vibration     1          0.617              1.906              2.716
 Vibration     2          0.622              1.890              2.540
 Vibration     3          0.719              1.599              1.220
 Vibration     4          0.780              1.433              0.901
 Vibration     5          0.839              1.288              0.702
 Vibration     6          0.847              1.270              0.681
 Vibration     7          0.885              1.184              0.588

 Optimization completed.
    -- Stationary point found.
 Normal termination of Gaussian 16 at Sat Sep 30 03:06:59 2023.
 Gaussian 16:  ES64L-G16RevB.01 20-Dec-2017

 ---------------------------------
 # rohf/gen geom=check guess=check
 ---------------------------------

 -----------------------------------
 phenyl isocyanide, ROHF/cc-pVTZ-F12
 -----------------------------------
 Structure from the checkpoint file:  "phnc.chk"
 Charge =  0 Multiplicity = 1

                         Standard orientation:
 ---------------------------------------------------------------------
 Center     Atomic      Atomic             Coordinates (Angstroms)
 Number     Number       Type             X           Y           Z
 ---------------------------------------------------------------------
      1          6           0        0.000000    0.000000    0.633677
      2          6           0       -0.000000    1.212019   -0.056655
      3          6           0       -0.000000   -1.212019   -0.056655
      4          6           0       -0.000000    1.204138   -1.444027
      5          6           0       -0.000000   -1.204138   -1.444027
      6          6           0        0.000000   -0.000000   -2.140264
      7          1           0       -0.000000    2.138942    0.498088
      8          1           0       -0.000000   -2.138942    0.498088
      9          1           0       -0.000000    2.142155   -1.981689
     10          1           0       -0.000000   -2.142155   -1.981689
     11          1           0        0.000000   -0.000000   -3.221412
     12          7           0        0.000000    0.000000    2.017264
     13          6           0        0.000000    0.000000    3.185914
 ---------------------------------------------------------------------

 SCF Done:  E(ROHF) =  -322.533302278     A.U. after   12 cycles

 The electronic state is 1-A1.
 Alpha  occ. eigenvalues --  -15.60376 -11.31313 -11.28371 -11.25801 -11.25799
 Alpha  occ. eigenvalues --  -11.25527 -11.25494 -11.25272  -1.29223  -1.17339
 Alpha  occ. eigenvalues --   -1.05461  -1.04221  -0.90271  -0.85710  -0.77908
 Alpha  occ. eigenvalues --   -0.70173  -0.66454  -0.63480  -0.61281  -0.58175
 Alpha  occ. eigenvalues --   -0.54210  -0.53568  -0.49756  -0.48826  -0.48112
 Alpha  occ. eigenvalues --   -0.36136  -0.34529
 Alpha virt. eigenvalues --    0.03969   0.04661   0.05171   0.06154   0.06478
 Alpha virt. eigenvalues --    0.06707   0.07992   0.08217   0.08786   0.09322
 Alpha virt. eigenvalues --    0.09477   0.09963   0.09976   0.11769   0.12042

 Mulliken charges and spin densities:
               1          2
     1  C    0.459494   0.000000
     2  C   -0.153678   0.000000
     3  C   -0.153678   0.000000
     4  C   -0.138593   0.000000
     5  C   -0.138593   0.000000
     6  C   -0.144205   0.000000
     7  H    0.164672   0.000000
     8  H    0.164672   0.000000
     9  H    0.150015   0.000000
    10  H    0.150015   0.000000
    11  H    0.148509   0.000000
    12  N   -0.624470   0.000000
    13  C    0.115842   0.000000
 Sum of Mulliken charges =  -0.00000   0.00000

 Dipole moment (field-independent basis, Debye):
    X=             -0.0000    Y=             -0.0000    Z=             -3.6796  Tot=              3.6796
 Quadrupole moment (field-independent basis, Debye-Ang):
   XX=            -50.2481   YY=            -40.2782   ZZ=            -55.1109
   XY=              0.0000   XZ=              0.0000   YZ=             -0.0000

 Normal termination of Gaussian 16 at Sat Sep 30 03:13:22 2023.
