 Gaussian 16, Revision B.01,
 Gaussian 16:  ES64L-G16RevB.01 20-Dec-2017

 -------------------------------
 # b3lyp/gen opt freq symm=loose
 -------------------------------

 --------------------------------
 phenyl isocyanide, B3LYP/pcseg-2
 --------------------------------
 Symbolic Z-matrix:
 Charge =  0 Multiplicity = 1

 SCF Done:  E(RB3LYP) =  -324.581731178     A.U. after   13 cycles
 SCF Done:  E(RB3LYP) =  -324.581886896     A.U. after    9 cycles
 SCF Done:  E(RB3LYP) =  -324.581889221     A.U. after    7 cycles
 Optimization completed.
    -- Stationary point found.
 Normal termination of Gaussian 16 at Wed Sep 13 10:31:53 2023.

 ------------------------------------------------------------------
 #N Geom=AllCheck Guess=TCheck SCRF=Check GenChk RB3LYP/ChkBas Freq
 ------------------------------------------------------------------

 Structure from the checkpoint file:  "/wrk/irikura/Gau-450762.chk"
 --------------------------------
 phenyl isocyanide, B3LYP/pcseg-2
 --------------------------------
 Charge =  0 Multiplicity = 1

                         Standard orientation:
 ---------------------------------------------------------------------
 Center     Atomic      Atomic             Coordinates (Angstroms)
 Number     Number       Type             X           Y           Z
 ---------------------------------------------------------------------
      1          6           0        0.000000   -0.000000    0.633677
      2          6           0        0.000000    1.212019   -0.056655
      3          6           0       -0.000000   -1.212019   -0.056655
      4          6           0        0.000000    1.204138   -1.444027
      5          6           0       -0.000000   -1.204138   -1.444027
      6          6           0       -0.000000    0.000000   -2.140264
      7          1           0        0.000000    2.138942    0.498088
      8          1           0       -0.000000   -2.138942    0.498088
      9          1           0        0.000000    2.142155   -1.981689
     10          1           0       -0.000000   -2.142155   -1.981689
     11          1           0       -0.000000    0.000000   -3.221412
     12          7           0        0.000000   -0.000000    2.017264
     13          6           0        0.000000   -0.000000    3.185914
 ---------------------------------------------------------------------

 SCF Done:  E(RB3LYP) =  -324.581889221     A.U. after    1 cycles

 The electronic state is 1-A1.
 Alpha  occ. eigenvalues --  -14.35953 -10.25548 -10.21584 -10.20403 -10.20403
 Alpha  occ. eigenvalues --  -10.20093 -10.20083 -10.19915  -0.97775  -0.88390
 Alpha  occ. eigenvalues --   -0.79311  -0.77873  -0.68210  -0.64091  -0.58733
 Alpha  occ. eigenvalues --   -0.52304  -0.49615  -0.46866  -0.45322  -0.43887
 Alpha  occ. eigenvalues --   -0.39375  -0.39093  -0.37463  -0.35581  -0.31642
 Alpha  occ. eigenvalues --   -0.28615  -0.27260
 Alpha virt. eigenvalues --   -0.05826  -0.04002   0.00594   0.01064   0.03245
 Alpha virt. eigenvalues --    0.03838   0.03963   0.06478   0.06813   0.10617
 Alpha virt. eigenvalues --    0.12587   0.13162   0.14653   0.15633   0.16781

 Mulliken charges:
               1
     1  C    0.313662
     2  C   -0.069354
     3  C   -0.069354
     4  C   -0.012463
     5  C   -0.012463
     6  C   -0.009698
     7  H    0.044533
     8  H    0.044533
     9  H    0.030601
    10  H    0.030601
    11  H    0.030860
    12  N   -0.360472
    13  C    0.039017
 Sum of Mulliken charges =   0.00000

 Dipole moment (field-independent basis, Debye):
    X=             -0.0000    Y=             -0.0000    Z=             -4.1146  Tot=              4.1146
 Quadrupole moment (field-independent basis, Debye-Ang):
   XX=            -49.3295   YY=            -40.3333   ZZ=            -56.8016
   XY=              0.0000   XZ=              0.0000   YZ=             -0.0000

  Exact polarizability:  47.164   0.000  84.839   0.000  -0.000 123.728
 Approx polarizability:  72.762   0.000 140.910   0.000  -0.000 194.527

                      1                      2                      3
                     B1                     B2                     B1
 Frequencies --    146.6040               160.7980               338.4166
 Red. masses --      6.0518                 7.3549                 6.1585
 Frc consts  --      0.0766                 0.1120                 0.4156
 IR Inten    --      1.5338                 2.8623                 0.1721

                      4                      5                      6
                     A2                     A1                     B2
 Frequencies --    417.2393               482.8512               491.1622
 Red. masses --      2.9100                 8.3062                 7.2568
 Frc consts  --      0.2985                 1.1410                 1.0314
 IR Inten    --      0.0000                 0.1466                 1.1317

                      7                      8                      9
                     B1                     B2                     B1
 Frequencies --    529.7207               637.0952               705.1342
 Red. masses --      3.2718                 6.5643                 2.0849
 Frc consts  --      0.5409                 1.5698                 0.6108
 IR Inten    --      8.6761                 0.0247                27.6340

                     10                     11                     12
                     B1                     A1                     A2
 Frequencies --    778.9695               786.4313               854.8869
 Red. masses --      1.6279                 6.0557                 1.2466
 Frc consts  --      0.5820                 2.2067                 0.5368
 IR Inten    --     58.7722                 6.3842                 0.0000

                     13                     14                     15
                     B1                     A2                     B1
 Frequencies --    942.6387               997.0690              1016.8766
 Red. masses --      1.4194                 1.3655                 1.3028
 Frc consts  --      0.7431                 0.7998                 0.7937
 IR Inten    --      5.8364                 0.0000                 0.0738

                     16                     17                     18
                     A1                     A1                     B2
 Frequencies --   1022.1378              1048.9320              1103.7061
 Red. masses --      6.2307                 2.1715                 1.5317
 Frc consts  --      3.8354                 1.4077                 1.0993
 IR Inten    --      0.0082                 3.9950                 6.4013

                     19                     20                     21
                     B2                     A1                     A1
 Frequencies --   1186.5451              1194.1233              1220.9917
 Red. masses --      1.1252                 1.2694                 3.0108
 Frc consts  --      0.9333                 1.0665                 2.6445
 IR Inten    --      0.0123                 2.0493                 7.8686

                     22                     23                     24
                     B2                     B2                     B2
 Frequencies --   1321.4118              1358.2398              1489.4928
 Red. masses --      4.5608                 1.4897                 2.2070
 Frc consts  --      4.6921                 1.6192                 2.8849
 IR Inten    --      1.8686                 0.0177                 2.6417

                     25                     26                     27
                     A1                     B2                     A1
 Frequencies --   1525.8528              1622.1989              1638.8219
 Red. masses --      2.1899                 5.6478                 5.4887
 Frc consts  --      3.0040                 8.7566                 8.6853
 IR Inten    --     24.3783                 4.1742                 6.4714

                     28                     29                     30
                     A1                     A1                     B2
 Frequencies --   2200.5455              3178.3807              3187.7485
 Red. masses --     12.9991                 1.0861                 1.0892
 Frc consts  --     37.0872                 6.4642                 6.5213
 IR Inten    --    193.3871                 0.0141                 5.5561

                     31                     32                     33
                     A1                     B2                     A1
 Frequencies --   3197.6755              3207.1518              3209.3756
 Red. masses --      1.0930                 1.0941                 1.0967
 Frc consts  --      6.5846                 6.6306                 6.6552
 IR Inten    --     10.8410                 4.2317                 0.9715

 - Thermochemistry -
 -------------------
 Temperature   298.150 Kelvin.  Pressure   1.00000 Atm.
 Atom     1 has atomic number  6 and mass  12.00000

 Molecular mass:   103.04220 amu.
 Principal axes and moments of inertia in atomic units:
                           1         2         3
     Eigenvalues --   316.131131097.035851413.16699
           X            0.00000  -0.00000   1.00000
           Y            0.00000   1.00000   0.00000
           Z            1.00000  -0.00000   0.00000
 This molecule is an asymmetric top.
 Rotational symmetry number  2.
 Rotational temperatures (Kelvin)      0.27398     0.07895     0.06129
 Rotational constants (GHZ):           5.70884     1.64511     1.27709
 Zero-point vibrational energy     258388.7 (Joules/Mol)
                                   61.75639 (Kcal/Mol)
 Warning -- explicit consideration of   7 degrees of freedom as
           vibrations may cause significant error
 Vibrational temperatures:    210.93   231.35   486.91   600.31   694.72
          (Kelvin)            706.67   762.15   916.64  1014.53  1120.76
                             1131.50  1229.99  1356.25  1434.56  1463.06
                             1470.63  1509.18  1587.99  1707.17  1718.08
                             1756.73  1901.22  1954.20  2143.05  2195.36
                             2333.98  2357.90  3166.09  4572.98  4586.46
                             4600.74  4614.38  4617.58

 Zero-point correction=                           0.098415 (Hartree/Particle)
 Thermal correction to Energy=                    0.104633
 Thermal correction to Enthalpy=                  0.105578
 Thermal correction to Gibbs Free Energy=         0.068757
 Sum of electronic and zero-point Energies=           -324.483474
 Sum of electronic and thermal Energies=              -324.477256
 Sum of electronic and thermal Enthalpies=            -324.476312
 Sum of electronic and thermal Free Energies=         -324.513132

                     E (Thermal)             CV                S
                      KCal/Mol        Cal/Mol-Kelvin    Cal/Mol-Kelvin
 Total                   65.658             23.491             77.495
 Electronic               0.000              0.000              0.000
 Translational            0.889              2.981             39.807
 Rotational               0.889              2.981             26.308
 Vibrational             63.881             17.529             11.380
 Vibration     1          0.617              1.906              2.716
 Vibration     2          0.622              1.890              2.540
 Vibration     3          0.719              1.599              1.220
 Vibration     4          0.780              1.433              0.901
 Vibration     5          0.839              1.288              0.702
 Vibration     6          0.847              1.270              0.681
 Vibration     7          0.885              1.184              0.588

 Optimization completed.
    -- Stationary point found.
 Normal termination of Gaussian 16 at Wed Sep 13 10:35:24 2023.
