 Gaussian 16, Revision B.01,

 ---------------------------------------
 # b3lyp/gen opt freq CPHF(Grid=OneStep)
 ---------------------------------------

 ----------------------
 aniline, B3LYP/pcseg-2
 ----------------------
 Symbolic Z-matrix:
 Charge =  0 Multiplicity = 1

 SCF Done:  E(RB3LYP) =  -287.722416204     A.U. after   12 cycles
 Optimization completed.
    -- Stationary point found.
 Normal termination of Gaussian 16 at Wed Sep 27 16:27:25 2023.

 ------------------------------------------------------------------
 #N Geom=AllCheck Guess=TCheck SCRF=Check GenChk RB3LYP/ChkBas Freq
 ------------------------------------------------------------------

 Structure from the checkpoint file:  "phnh2.chk"
 ----------------------
 aniline, B3LYP/pcseg-2
 ----------------------
 Charge =  0 Multiplicity = 1

 SCF Done:  E(RB3LYP) =  -287.722416204     A.U. after    1 cycles

  Exact polarizability:  45.244  -0.279 101.110   0.000  -0.000  84.470
 Approx polarizability:  69.334   0.356 160.273   0.000   0.000 138.952

                      1                      2                      3
                     A'                     A"                     A"
 Frequencies --    220.7435               300.4131               384.3586
 Red. masses --      3.6128                 1.0319                 2.9249
 Frc consts  --      0.1037                 0.0549                 0.2546
 IR Inten    --      5.3631                17.7693                 0.1384

                      4                      5                      6
                     A"                     A'                     A'
 Frequencies --    419.7967               505.2026               537.8315
 Red. masses --      2.9289                 2.0448                 6.0271
 Frc consts  --      0.3041                 0.3075                 1.0272
 IR Inten    --      0.2043               101.7914                12.9202

                      7                      8                      9
                     A'                     A"                     A'
 Frequencies --    574.5085               637.9437               706.8685
 Red. masses --      1.4972                 6.3611                 1.8754
 Frc consts  --      0.2912                 1.5253                 0.5521
 IR Inten    --    208.7171                 0.3232                31.3025

                     10                     11                     12
                     A'                     A"                     A'
 Frequencies --    767.2155               831.5632               833.6867
 Red. masses --      1.8162                 1.2590                 4.4667
 Frc consts  --      0.6299                 0.5130                 1.8291
 IR Inten    --     61.9007                 0.0185                 4.0505

                     13                     14                     15
                     A'                     A"                     A'
 Frequencies --    892.8533               975.2834               990.6461
 Red. masses --      1.5357                 1.3533                 1.2712
 Frc consts  --      0.7213                 0.7584                 0.7350
 IR Inten    --      8.0556                 0.0054                 0.0608

                     16                     17                     18
                     A'                     A'                     A"
 Frequencies --   1015.2766              1049.7123              1064.1900
 Red. masses --      6.0031                 2.1379                 1.5797
 Frc consts  --      3.6458                 1.3880                 1.0541
 IR Inten    --      2.3854                 3.1856                 2.7930

                     19                     20                     21
                     A"                     A"                     A'
 Frequencies --   1135.9497              1180.8632              1202.0804
 Red. masses --      1.2782                 1.1072                 1.1317
 Frc consts  --      0.9718                 0.9097                 0.9635
 IR Inten    --      4.2984                 2.1191                10.2277

                     22                     23                     24
                     A'                     A"                     A"
 Frequencies --   1300.9944              1344.9571              1374.2537
 Red. masses --      3.3051                 5.3444                 1.2951
 Frc consts  --      3.2960                 5.6959                 1.4411
 IR Inten    --     69.1871                 7.4840                 0.0200

                     25                     26                     27
                     A"                     A'                     A"
 Frequencies --   1504.5823              1534.5746              1626.1673
 Red. masses --      2.3011                 2.3181                 5.6070
 Frc consts  --      3.0691                 3.2163                 8.7360
 IR Inten    --      1.3853                62.5752                 5.3642

                     28                     29                     30
                     A'                     A'                     A'
 Frequencies --   1644.6491              1660.6758              3157.7701
 Red. masses --      2.9424                 1.3865                 1.0862
 Frc consts  --      4.6892                 2.2529                 6.3812
 IR Inten    --     30.5270               136.4347                17.2489

                     31                     32                     33
                     A"                     A'                     A"
 Frequencies --   3158.7918              3174.4296              3179.7951
 Red. masses --      1.0875                 1.0896                 1.0933
 Frc consts  --      6.3935                 6.4691                 6.5131
 IR Inten    --      3.8926                 3.3041                31.8619

                     34                     35                     36
                     A'                     A'                     A"
 Frequencies --   3197.1954              3567.7643              3666.3256
 Red. masses --      1.0966                 1.0472                 1.0990
 Frc consts  --      6.6045                 7.8533                 8.7041
 IR Inten    --     11.9356                19.2215                15.5701

 - Thermochemistry -
 -------------------
 Temperature   298.150 Kelvin.  Pressure   1.00000 Atm.
 Atom     1 has atomic number  6 and mass  12.00000

 Molecular mass:    93.05785 amu.
 Principal axes and moments of inertia in atomic units:
                           1         2         3
     Eigenvalues --   318.75717 692.945211010.28832
           X            0.00121  -0.00000   1.00000
           Y            1.00000  -0.00000  -0.00121
           Z            0.00000   1.00000   0.00000
 This molecule is an asymmetric top.
 Rotational symmetry number  1.
 Rotational temperatures (Kelvin)      0.27172     0.12499     0.08573
 Rotational constants (GHZ):           5.66181     2.60445     1.78636
 Zero-point vibrational energy     306961.2 (Joules/Mol)
                                   73.36550 (Kcal/Mol)
 Warning -- explicit consideration of   7 degrees of freedom as
           vibrations may cause significant error
 Vibrational temperatures:    317.60   432.23   553.01   603.99   726.87
          (Kelvin)            773.82   826.59   917.86  1017.03  1103.85
                             1196.43  1199.49  1284.62  1403.22  1425.32
                             1460.76  1510.30  1531.13  1634.38  1699.00
                             1729.53  1871.84  1935.09  1977.24  2164.76
                             2207.91  2339.69  2366.28  2389.34  4543.33
                             4544.80  4567.30  4575.02  4600.05  5133.22
                             5275.02

 Zero-point correction=                           0.116915 (Hartree/Particle)
 Thermal correction to Energy=                    0.122712
 Thermal correction to Enthalpy=                  0.123656
 Thermal correction to Gibbs Free Energy=         0.087775
 Sum of electronic and zero-point Energies=           -287.605501
 Sum of electronic and thermal Energies=              -287.599704
 Sum of electronic and thermal Enthalpies=            -287.598760
 Sum of electronic and thermal Free Energies=         -287.634641

                     E (Thermal)             CV                S
                      KCal/Mol        Cal/Mol-Kelvin    Cal/Mol-Kelvin
 Total                   77.003             23.177             75.518
 Electronic               0.000              0.000              0.000
 Translational            0.889              2.981             39.504
 Rotational               0.889              2.981             26.903
 Vibrational             75.226             17.215              9.111
 Vibration     1          0.647              1.809              1.953
 Vibration     2          0.693              1.673              1.415
 Vibration     3          0.753              1.504              1.022
 Vibration     4          0.782              1.427              0.893
 Vibration     5          0.860              1.238              0.645
 Vibration     6          0.893              1.166              0.570
 Vibration     7          0.931              1.086              0.496

                           ! Non-Optimized Parameters !
 Normal termination of Gaussian 16 at Wed Sep 27 16:42:50 2023.
 Gaussian 16:  ES64L-G16RevB.01 20-Dec-2017

 ---------------------------------
 # rohf/gen geom=check guess=check
 ---------------------------------

 -------------------------
 aniline, ROHF/cc-pVTZ-F12
 -------------------------
 Structure from the checkpoint file:  "phnh2.chk"
 Charge =  0 Multiplicity = 1

                         Standard orientation:
 ---------------------------------------------------------------------
 Center     Atomic      Atomic             Coordinates (Angstroms)
 Number     Number       Type             X           Y           Z
 ---------------------------------------------------------------------
      1          6           0        0.002339    0.934959    0.000000
      2          6           0        0.003332    0.219789    1.203075
      3          6           0        0.003332   -1.167880    1.197722
      4          6           0        0.003636   -1.875068   -0.000000
      5          6           0        0.003332   -1.167880   -1.197722
      6          6           0        0.003332    0.219789   -1.203075
      7          7           0        0.058517    2.328449    0.000000
      8          1           0        0.007931    0.757883    2.143090
      9          1           0        0.002680   -1.699881    2.140056
     10          1           0        0.003165   -2.955888   -0.000000
     11          1           0        0.002680   -1.699881   -2.140056
     12          1           0        0.007931    0.757883   -2.143090
     13          1           0       -0.274912    2.779238   -0.835768
     14          1           0       -0.274912    2.779238    0.835768
 ---------------------------------------------------------------------

 SCF Done:  E(ROHF) =  -285.851230246     A.U. after   12 cycles

 The electronic state is 1-A'.
 Alpha  occ. eigenvalues --  -15.56325 -11.27694 -11.23243 -11.23240 -11.22093
 Alpha  occ. eigenvalues --  -11.22091 -11.21602  -1.22485  -1.12721  -1.01198
 Alpha  occ. eigenvalues --   -0.98599  -0.83156  -0.81343  -0.70660  -0.68741
 Alpha  occ. eigenvalues --   -0.65628  -0.59870  -0.59397  -0.58138  -0.53491
 Alpha  occ. eigenvalues --   -0.50758  -0.48817  -0.44853  -0.33685  -0.29413
 Alpha virt. eigenvalues --    0.04465   0.05209   0.05302   0.06832   0.06906
 Alpha virt. eigenvalues --    0.08717   0.09087   0.10250   0.10507   0.10768
 Alpha virt. eigenvalues --    0.11914   0.11971   0.12745   0.12806   0.13002

 Mulliken charges and spin densities:
               1          2
     1  C    0.343296   0.000000
     2  C   -0.117577   0.000000
     3  C   -0.156062   0.000000
     4  C   -0.185708   0.000000
     5  C   -0.156062   0.000000
     6  C   -0.117577   0.000000
     7  N   -0.776458   0.000000
     8  H    0.116846   0.000000
     9  H    0.142321   0.000000
    10  H    0.138283   0.000000
    11  H    0.142321   0.000000
    12  H    0.116846   0.000000
    13  H    0.254766   0.000000
    14  H    0.254766   0.000000
 Sum of Mulliken charges =  -0.00000   0.00000

 Dipole moment (field-independent basis, Debye):
    X=             -0.9578    Y=              1.1056    Z=             -0.0000  Tot=              1.4628
 Quadrupole moment (field-independent basis, Debye-Ang):
   XX=            -47.6899   YY=            -35.7517   ZZ=            -36.7126
   XY=             -3.1733   XZ=             -0.0000   YZ=              0.0000

 Normal termination of Gaussian 16 at Wed Sep 27 16:48:33 2023.
