 Gaussian 16, Revision B.01,
 Gaussian 16:  ES64L-G16RevB.01 20-Dec-2017

 -------------------------------
 # b3lyp/gen opt freq symm=loose
 -------------------------------

 ----------------------
 aniline, B3LYP/pcseg-2
 ----------------------
 Symbolic Z-matrix:
 Charge =  0 Multiplicity = 1

 SCF Done:  E(RB3LYP) =  -287.722026851     A.U. after   12 cycles
 SCF Done:  E(RB3LYP) =  -287.722411220     A.U. after    9 cycles
 SCF Done:  E(RB3LYP) =  -287.722416204     A.U. after    7 cycles
 Optimization completed.
    -- Stationary point found.
 Normal termination of Gaussian 16 at Tue Sep 12 10:20:46 2023.

 ------------------------------------------------------------------
 #N Geom=AllCheck Guess=TCheck SCRF=Check GenChk RB3LYP/ChkBas Freq
 ------------------------------------------------------------------

 Structure from the checkpoint file:  "/wrk/irikura/Gau-328053.chk"
 ----------------------
 aniline, B3LYP/pcseg-2
 ----------------------
 Charge =  0 Multiplicity = 1

                         Standard orientation:
 ---------------------------------------------------------------------
 Center     Atomic      Atomic             Coordinates (Angstroms)
 Number     Number       Type             X           Y           Z
 ---------------------------------------------------------------------
      1          6           0       -0.002339   -0.934959   -0.000000
      2          6           0       -0.003332   -0.219789    1.203075
      3          6           0       -0.003332    1.167880    1.197722
      4          6           0       -0.003636    1.875068    0.000000
      5          6           0       -0.003332    1.167880   -1.197722
      6          6           0       -0.003332   -0.219789   -1.203075
      7          7           0       -0.058517   -2.328449   -0.000000
      8          1           0       -0.007931   -0.757883    2.143090
      9          1           0       -0.002680    1.699881    2.140056
     10          1           0       -0.003165    2.955888    0.000000
     11          1           0       -0.002680    1.699881   -2.140056
     12          1           0       -0.007931   -0.757883   -2.143090
     13          1           0        0.274912   -2.779238   -0.835768
     14          1           0        0.274912   -2.779238    0.835768
 ---------------------------------------------------------------------

 SCF Done:  E(RB3LYP) =  -287.722416204     A.U. after    1 cycles

 The electronic state is 1-A'.
 Alpha  occ. eigenvalues --  -14.32267 -10.21423 -10.17096 -10.17095 -10.16639
 Alpha  occ. eigenvalues --  -10.16638 -10.16068  -0.92349  -0.83883  -0.74537
 Alpha  occ. eigenvalues --   -0.72717  -0.61386  -0.60030  -0.52854  -0.51349
 Alpha  occ. eigenvalues --   -0.47961  -0.43441  -0.43155  -0.41996  -0.38847
 Alpha  occ. eigenvalues --   -0.35981  -0.34307  -0.31696  -0.25494  -0.21198
 Alpha virt. eigenvalues --   -0.01166   0.00180   0.01168   0.02760   0.03577
 Alpha virt. eigenvalues --    0.06082   0.06235   0.09505   0.10156   0.13082
 Alpha virt. eigenvalues --    0.14151   0.16109   0.17485   0.18802   0.20197

 Mulliken charges:
               1
     1  C    0.291131
     2  C   -0.075076
     3  C   -0.038149
     4  C   -0.040380
     5  C   -0.038149
     6  C   -0.075076
     7  N   -0.327798
     8  H    0.008311
     9  H    0.015205
    10  H    0.015437
    11  H    0.015205
    12  H    0.008311
    13  H    0.120515
    14  H    0.120515
 Sum of Mulliken charges =  -0.00000

 Dipole moment (field-independent basis, Debye):
    X=              0.9173    Y=             -1.3325    Z=              0.0000  Tot=              1.6177
 Quadrupole moment (field-independent basis, Debye-Ang):
   XX=            -46.9142   YY=            -35.4728   ZZ=            -37.2148
   XY=             -3.0264   XZ=              0.0000   YZ=             -0.0000

  Exact polarizability:  45.243  -0.279 101.110  -0.000   0.000  84.470
 Approx polarizability:  69.334   0.356 160.273  -0.000   0.000 138.952

                      1                      2                      3
                     A'                     A"                     A"
 Frequencies --    220.7415               300.4166               384.3582
 Red. masses --      3.6127                 1.0319                 2.9248
 Frc consts  --      0.1037                 0.0549                 0.2546
 IR Inten    --      5.3628                17.7693                 0.1383

                      4                      5                      6
                     A"                     A'                     A'
 Frequencies --    419.7963               505.1984               537.8304
 Red. masses --      2.9289                 2.0447                 6.0268
 Frc consts  --      0.3041                 0.3075                 1.0271
 IR Inten    --      0.2043               101.8116                12.9243

                      7                      8                      9
                     A'                     A"                     A'
 Frequencies --    574.4994               637.9454               706.8637
 Red. masses --      1.4973                 6.3611                 1.8754
 Frc consts  --      0.2912                 1.5253                 0.5521
 IR Inten    --    208.6900                 0.3233                31.3008

                     10                     11                     12
                     A'                     A"                     A'
 Frequencies --    767.2101               831.5552               833.6841
 Red. masses --      1.8161                 1.2590                 4.4667
 Frc consts  --      0.6298                 0.5129                 1.8291
 IR Inten    --     61.9007                 0.0185                 4.0498

                     13                     14                     15
                     A'                     A"                     A'
 Frequencies --    892.8522               975.2835               990.6433
 Red. masses --      1.5357                 1.3533                 1.2712
 Frc consts  --      0.7213                 0.7584                 0.7350
 IR Inten    --      8.0594                 0.0054                 0.0608

                     16                     17                     18
                     A'                     A'                     A"
 Frequencies --   1015.2771              1049.7077              1064.1848
 Red. masses --      6.0032                 2.1379                 1.5797
 Frc consts  --      3.6459                 1.3880                 1.0540
 IR Inten    --      2.3854                 3.1848                 2.7914

                     19                     20                     21
                     A"                     A"                     A'
 Frequencies --   1135.9421              1180.8597              1202.0792
 Red. masses --      1.2782                 1.1072                 1.1317
 Frc consts  --      0.9718                 0.9097                 0.9635
 IR Inten    --      4.2990                 2.1196                10.2277

                     22                     23                     24
                     A'                     A"                     A"
 Frequencies --   1300.9920              1344.9541              1374.2532
 Red. masses --      3.3051                 5.3446                 1.2951
 Frc consts  --      3.2960                 5.6961                 1.4411
 IR Inten    --     69.1809                 7.4854                 0.0200

                     25                     26                     27
                     A"                     A'                     A"
 Frequencies --   1504.5790              1534.5674              1626.1670
 Red. masses --      2.3011                 2.3181                 5.6070
 Frc consts  --      3.0691                 3.2162                 8.7360
 IR Inten    --      1.3867                62.5859                 5.3637

                     28                     29                     30
                     A'                     A'                     A'
 Frequencies --   1644.6503              1660.6725              3157.7680
 Red. masses --      2.9415                 1.3867                 1.0862
 Frc consts  --      4.6877                 2.2532                 6.3812
 IR Inten    --     30.4997               136.4646                17.2552

                     31                     32                     33
                     A"                     A'                     A"
 Frequencies --   3158.7897              3174.4290              3179.7962
 Red. masses --      1.0875                 1.0896                 1.0933
 Frc consts  --      6.3935                 6.4691                 6.5131
 IR Inten    --      3.8956                 3.3051                31.8626

                     34                     35                     36
                     A'                     A'                     A"
 Frequencies --   3197.1957              3567.7719              3666.3340
 Red. masses --      1.0966                 1.0472                 1.0990
 Frc consts  --      6.6045                 7.8534                 8.7041
 IR Inten    --     11.9376                19.2224                15.5694

 - Thermochemistry -
 -------------------
 Temperature   298.150 Kelvin.  Pressure   1.00000 Atm.
 Atom     1 has atomic number  6 and mass  12.00000

 Molecular mass:    93.05785 amu.
 Principal axes and moments of inertia in atomic units:
                           1         2         3
     Eigenvalues --   318.75712 692.945211010.28827
           X            0.00121   0.00000   1.00000
           Y            1.00000   0.00000  -0.00121
           Z            0.00000   1.00000   0.00000
 This molecule is an asymmetric top.
 Rotational symmetry number  1.
 Rotational temperatures (Kelvin)      0.27172     0.12499     0.08573
 Rotational constants (GHZ):           5.66181     2.60445     1.78636
 Zero-point vibrational energy     306960.9 (Joules/Mol)
                                   73.36541 (Kcal/Mol)
 Warning -- explicit consideration of   7 degrees of freedom as
           vibrations may cause significant error
 Vibrational temperatures:    317.60   432.23   553.01   603.99   726.87
          (Kelvin)            773.82   826.58   917.86  1017.02  1103.84
                             1196.42  1199.49  1284.62  1403.22  1425.31
                             1460.76  1510.30  1531.12  1634.37  1698.99
                             1729.52  1871.84  1935.09  1977.24  2164.75
                             2207.90  2339.69  2366.29  2389.34  4543.32
                             4544.79  4567.30  4575.02  4600.05  5133.23
                             5275.04

 Zero-point correction=                           0.116915 (Hartree/Particle)
 Thermal correction to Energy=                    0.122712
 Thermal correction to Enthalpy=                  0.123656
 Thermal correction to Gibbs Free Energy=         0.087775
 Sum of electronic and zero-point Energies=           -287.605501
 Sum of electronic and thermal Energies=              -287.599704
 Sum of electronic and thermal Enthalpies=            -287.598760
 Sum of electronic and thermal Free Energies=         -287.634641

                     E (Thermal)             CV                S
                      KCal/Mol        Cal/Mol-Kelvin    Cal/Mol-Kelvin
 Total                   77.003             23.177             75.518
 Electronic               0.000              0.000              0.000
 Translational            0.889              2.981             39.504
 Rotational               0.889              2.981             26.903
 Vibrational             75.226             17.215              9.111
 Vibration     1          0.647              1.809              1.953
 Vibration     2          0.693              1.673              1.415
 Vibration     3          0.753              1.504              1.022
 Vibration     4          0.782              1.427              0.893
 Vibration     5          0.860              1.238              0.645
 Vibration     6          0.893              1.166              0.570
 Vibration     7          0.931              1.086              0.496

                           ! Non-Optimized Parameters !
 Normal termination of Gaussian 16 at Tue Sep 12 10:25:09 2023.
