 Gaussian 16, Revision B.01,
 Gaussian 16:  ES64L-G16RevB.01 20-Dec-2017

 --------------------
 # b3lyp/gen opt freq
 --------------------

 -----------------------------
 nitrosobenzene, B3LYP/pcseg-2
 -----------------------------
 Symbolic Z-matrix:
 Charge =  0 Multiplicity = 1

 SCF Done:  E(RB3LYP) =  -361.680556990     A.U. after   15 cycles
 SCF Done:  E(RB3LYP) =  -361.680649590     A.U. after    9 cycles
 SCF Done:  E(RB3LYP) =  -361.680652154     A.U. after    9 cycles
 SCF Done:  E(RB3LYP) =  -361.680653377     A.U. after    8 cycles
 Optimization completed.
    -- Stationary point found.
 Normal termination of Gaussian 16 at Thu Jun 16 17:02:46 2022.

 ------------------------------------------------------------------
 #N Geom=AllCheck Guess=TCheck SCRF=Check GenChk RB3LYP/ChkBas Freq
 ------------------------------------------------------------------

 Structure from the checkpoint file:  "/wrk/irikura/Gau-8580.chk"
 -----------------------------
 nitrosobenzene, B3LYP/pcseg-2
 -----------------------------
 Charge =  0 Multiplicity = 1

                         Standard orientation:
 ---------------------------------------------------------------------
 Center     Atomic      Atomic             Coordinates (Angstroms)
 Number     Number       Type             X           Y           Z
 ---------------------------------------------------------------------
      1          6           0        0.000000    0.594346    0.000000
      2          6           0       -1.053388   -0.322884    0.000000
      3          6           0       -0.764931   -1.675605    0.000000
      4          6           0        0.563255   -2.109205    0.000000
      5          6           0        1.607854   -1.191362    0.000000
      6          6           0        1.325686    0.168222    0.000000
      7          7           0       -0.183833    2.021727    0.000000
      8          8           0       -1.333627    2.401834    0.000000
      9          1           0       -2.069882    0.043862    0.000000
     10          1           0       -1.566974   -2.401209    0.000000
     11          1           0        0.779546   -3.169169    0.000000
     12          1           0        2.632911   -1.534927    0.000000
     13          1           0        2.109395    0.913604    0.000000
 ---------------------------------------------------------------------

 SCF Done:  E(RB3LYP) =  -361.680653377     A.U. after    1 cycles

 The electronic state is 1-A'.
 Alpha  occ. eigenvalues --  -19.17521 -14.42763 -10.21893 -10.20718 -10.20521
 Alpha  occ. eigenvalues --  -10.20303 -10.20205 -10.20136  -1.15555  -0.89294
 Alpha  occ. eigenvalues --   -0.80964  -0.77809  -0.70630  -0.63677  -0.60163
 Alpha  occ. eigenvalues --   -0.54792  -0.50074  -0.49501  -0.46716  -0.46494
 Alpha  occ. eigenvalues --   -0.45306  -0.42130  -0.39326  -0.39234  -0.37112
 Alpha  occ. eigenvalues --   -0.28793  -0.28585  -0.23241
 Alpha virt. eigenvalues --   -0.11277  -0.03900  -0.00636   0.00836   0.03158
 Alpha virt. eigenvalues --    0.04423   0.06753   0.07421   0.10381   0.12101
 Alpha virt. eigenvalues --    0.14975   0.15355   0.15826   0.17451   0.18482

 Mulliken charges:
               1
     1  C    0.118696
     2  C   -0.004573
     3  C   -0.038999
     4  C    0.024036
     5  C   -0.039108
     6  C    0.002096
     7  N    0.047851
     8  O   -0.288501
     9  H    0.046691
    10  H    0.031340
    11  H    0.034941
    12  H    0.030955
    13  H    0.034576
 Sum of Mulliken charges =   0.00000

 Dipole moment (field-independent basis, Debye):
    X=              1.1738    Y=             -3.7490    Z=              0.0000  Tot=              3.9285
 Quadrupole moment (field-independent basis, Debye-Ang):
   XX=            -42.4326   YY=            -49.6690   ZZ=            -48.0312
   XY=              2.5077   XZ=              0.0000   YZ=              0.0000

  Exact polarizability:  90.463 -11.839 110.121   0.000  -0.000  42.986
 Approx polarizability: 158.069 -25.186 186.515  -0.000  -0.000  67.293

                      1                      2                      3
                     A"                     A"                     A'
 Frequencies --    107.6202               244.9232               257.9727
 Red. masses --      7.4069                 6.2160                 6.3317
 Frc consts  --      0.0505                 0.2197                 0.2483
 IR Inten    --      0.1315                 0.2821                 1.9414

                      4                      5                      6
                     A"                     A'                     A"
 Frequencies --    419.9550               449.4771               473.8762
 Red. masses --      2.9039                 8.2749                 3.2317
 Frc consts  --      0.3017                 0.9850                 0.4276
 IR Inten    --      0.0013                 1.1927                 2.6839

                      7                      8                      9
                     A'                     A'                     A"
 Frequencies --    627.3546               683.8076               697.8203
 Red. masses --      6.4609                 7.4663                 2.1032
 Frc consts  --      1.4982                 2.0570                 0.6034
 IR Inten    --      0.1872                11.2836                28.7918

                     10                     11                     12
                     A"                     A'                     A"
 Frequencies --    783.0920               831.9876               868.1051
 Red. masses --      1.5387                 7.2522                 1.2468
 Frc consts  --      0.5559                 2.9577                 0.5536
 IR Inten    --     56.7379                39.7356                 0.0105

                     13                     14                     15
                     A"                     A"                     A'
 Frequencies --    971.4667              1013.6687              1020.5307
 Red. masses --      1.3829                 1.3750                 6.2187
 Frc consts  --      0.7689                 0.8324                 3.8160
 IR Inten    --      3.9819                 0.0030                 2.8862

                     16                     17                     18
                     A"                     A'                     A'
 Frequencies --   1028.1769              1037.7121              1098.1544
 Red. masses --      1.3244                 2.0211                 1.4910
 Frc consts  --      0.8249                 1.2823                 1.0594
 IR Inten    --      0.0334                 8.1757                 4.9949

                     19                     20                     21
                     A'                     A'                     A'
 Frequencies --   1128.0210              1185.6385              1199.3199
 Red. masses --      2.9607                 1.1344                 1.3787
 Frc consts  --      2.2196                 0.9395                 1.1684
 IR Inten    --    157.0511                 1.6017                12.3769

                     22                     23                     24
                     A'                     A'                     A'
 Frequencies --   1343.7603              1354.7906              1486.0216
 Red. masses --      1.4259                 6.2765                 2.3232
 Frc consts  --      1.5170                 6.7876                 3.0226
 IR Inten    --     10.0202                13.6386                43.0385

                     25                     26                     27
                     A'                     A'                     A'
 Frequencies --   1503.4865              1579.1351              1632.0938
 Red. masses --      2.1542                 6.2183                 6.1188
 Frc consts  --      2.8690                 9.1361                 9.6030
 IR Inten    --     10.7796               189.4865                 2.9433

                     28                     29                     30
                     A'                     A'                     A'
 Frequencies --   1645.7039              3174.0263              3184.9187
 Red. masses --      6.8443                 1.0863                 1.0887
 Frc consts  --     10.9215                 6.4478                 6.5069
 IR Inten    --     12.9067                 0.5059                 5.8817

                     31                     32                     33
                     A'                     A'                     A'
 Frequencies --   3191.5843              3201.2198              3206.3309
 Red. masses --      1.0917                 1.0960                 1.0935
 Frc consts  --      6.5520                 6.6175                 6.6233
 IR Inten    --      6.3021                 8.1375                 5.6280

 - Thermochemistry -
 -------------------
 Temperature   298.150 Kelvin.  Pressure   1.00000 Atm.
 Atom     1 has atomic number  6 and mass  12.00000

 Molecular mass:   107.03711 amu.
 Principal axes and moments of inertia in atomic units:
                           1         2         3
     Eigenvalues --   340.640631095.891431436.53206
           X           -0.36794   0.92985   0.00000
           Y            0.92985   0.36794   0.00000
           Z           -0.00000   0.00000   1.00000
 This molecule is an asymmetric top.
 Rotational symmetry number  1.
 Rotational temperatures (Kelvin)      0.25427     0.07904     0.06029
 Rotational constants (GHZ):           5.29808     1.64682     1.25632
 Zero-point vibrational energy     254994.5 (Joules/Mol)
                                   60.94515 (Kcal/Mol)
 Warning -- explicit consideration of   6 degrees of freedom as
           vibrations may cause significant error
 Vibrational temperatures:    154.84   352.39   371.17   604.22   646.70
          (Kelvin)            681.80   902.62   983.85  1004.01  1126.69
                             1197.04  1249.01  1397.72  1458.44  1468.32
                             1479.32  1493.04  1580.00  1622.97  1705.87
                             1725.55  1933.37  1949.24  2138.05  2163.18
                             2272.02  2348.22  2367.80  4566.72  4582.39
                             4591.98  4605.84  4613.20

 Zero-point correction=                           0.097122 (Hartree/Particle)
 Thermal correction to Energy=                    0.103330
 Thermal correction to Enthalpy=                  0.104274
 Thermal correction to Gibbs Free Energy=         0.066641
 Sum of electronic and zero-point Energies=           -361.583531
 Sum of electronic and thermal Energies=              -361.577324
 Sum of electronic and thermal Enthalpies=            -361.576380
 Sum of electronic and thermal Free Energies=         -361.614012

                     E (Thermal)             CV                S
                      KCal/Mol        Cal/Mol-Kelvin    Cal/Mol-Kelvin
 Total                   64.840             23.337             79.204
 Electronic               0.000              0.000              0.000
 Translational            0.889              2.981             39.921
 Rotational               0.889              2.981             27.774
 Vibrational             63.063             17.375             11.509
 Vibration     1          0.606              1.943              3.311
 Vibration     2          0.660              1.771              1.767
 Vibration     3          0.667              1.749              1.675
 Vibration     4          0.783              1.427              0.892
 Vibration     5          0.808              1.362              0.797
 Vibration     6          0.831              1.308              0.727

 Optimization completed.
    -- Stationary point found.
 Normal termination of Gaussian 16 at Thu Jun 16 17:07:46 2022.
