 Gaussian 16, Revision B.01,

 ---------------------------------------
 # b3lyp/gen opt freq CPHF(Grid=OneStep)
 ---------------------------------------

 ---------------------------
 nitrobenzene, B3LYP/pcseg-2
 ---------------------------
 Symbolic Z-matrix:
 Charge =  0 Multiplicity = 1

 SCF Done:  E(RB3LYP) =  -436.925321662     A.U. after   13 cycles
 Optimization completed.
    -- Stationary point found.
 Normal termination of Gaussian 16 at Fri Sep 29 09:29:22 2023.

 ------------------------------------------------------------------
 #N Geom=AllCheck Guess=TCheck SCRF=Check GenChk RB3LYP/ChkBas Freq
 ------------------------------------------------------------------

 Structure from the checkpoint file:  "phno2.chk"
 ---------------------------
 nitrobenzene, B3LYP/pcseg-2
 ---------------------------
 Charge =  0 Multiplicity = 1

 SCF Done:  E(RB3LYP) =  -436.925321662     A.U. after    1 cycles

  Exact polarizability:  44.225   0.000  94.409  -0.000  -0.000 111.510
 Approx polarizability:  69.150   0.000 180.273  -0.000   0.000 172.869

                      1                      2                      3
                     A2                     B1                     B2
 Frequencies --     50.4130               168.8613               255.5744
 Red. masses --      7.9958                 5.1071                 6.3780
 Frc consts  --      0.0120                 0.0858                 0.2455
 IR Inten    --      0.0000                 0.9459                 0.9347

                      4                      5                      6
                     A1                     A2                     B1
 Frequencies --    395.2522               418.5588               447.4125
 Red. masses --      9.3260                 2.9012                 3.5925
 Frc consts  --      0.8584                 0.2995                 0.4237
 IR Inten    --      1.0311                 0.0000                 0.7126

                      7                      8                      9
                     B2                     B2                     B1
 Frequencies --    524.8197               628.6223               693.3694
 Red. masses --      8.2282                 6.4102                 2.7984
 Frc consts  --      1.3353                 1.4925                 0.7927
 IR Inten    --      1.2161                 0.0480                10.5769

                     10                     11                     12
                     A1                     B1                     B1
 Frequencies --    697.8245               724.1982               816.6382
 Red. masses --      7.1767                 1.9565                 2.5814
 Frc consts  --      2.0590                 0.6046                 1.0143
 IR Inten    --      8.5274                79.0683                10.5543

                     13                     14                     15
                     A2                     A1                     B1
 Frequencies --    862.7338               870.1994               971.6488
 Red. masses --      1.2450                10.7398                 1.4134
 Frc consts  --      0.5460                 4.7916                 0.7862
 IR Inten    --      0.0000                35.2484                 3.4884

                     16                     17                     18
                     A2                     A1                     B1
 Frequencies --   1011.1759              1024.2647              1027.1012
 Red. masses --      1.3684                 6.2547                 1.3154
 Frc consts  --      0.8243                 3.8662                 0.8176
 IR Inten    --      0.0000                 0.3153                 0.0759

                     19                     20                     21
                     A1                     B2                     A1
 Frequencies --   1044.7028              1100.8451              1117.1496
 Red. masses --      2.1609                 1.4620                 3.4031
 Frc consts  --      1.3895                 1.0439                 2.5024
 IR Inten    --      7.4345                 8.5448                35.1791

                     22                     23                     24
                     B2                     A1                     B2
 Frequencies --   1186.9252              1197.1074              1341.6972
 Red. masses --      1.1248                 1.2277                 1.3991
 Frc consts  --      0.9336                 1.0366                 1.4839
 IR Inten    --      0.6888                 3.1299                 0.3413

                     25                     26                     27
                     B2                     A1                     B2
 Frequencies --   1352.3262              1372.8460              1492.4442
 Red. masses --      6.2904                14.0825                 2.2718
 Frc consts  --      6.7779                15.6377                 2.9814
 IR Inten    --     13.3198               282.6082                 0.3918

                     28                     29                     30
                     A1                     B2                     A1
 Frequencies --   1515.0513              1581.5750              1629.7698
 Red. masses --      2.1114                10.3167                 5.5307
 Frc consts  --      2.8554                15.2044                 8.6553
 IR Inten    --     10.6443               254.8383                 2.9423

                     31                     32                     33
                     B2                     A1                     B2
 Frequencies --   1651.9392              3180.9761              3193.7199
 Red. masses --      7.0530                 1.0868                 1.0905
 Frc consts  --     11.3399                 6.4792                 6.5536
 IR Inten    --     27.3656                 0.6705                 8.4669

                     34                     35                     36
                     A1                     B2                     A1
 Frequencies --   3202.2024              3230.4222              3230.6125
 Red. masses --      1.0954                 1.0922                 1.0934
 Frc consts  --      6.6177                 6.7153                 6.7234
 IR Inten    --      7.4846                 0.6290                 5.0523

 - Thermochemistry -
 -------------------
 Temperature   298.150 Kelvin.  Pressure   1.00000 Atm.
 Atom     1 has atomic number  6 and mass  12.00000

 Molecular mass:   123.03203 amu.
 Principal axes and moments of inertia in atomic units:
                           1         2         3
     Eigenvalues --   450.900851400.806821851.70768
           X            0.00000   0.00000   1.00000
           Y            0.00000   1.00000  -0.00000
           Z            1.00000  -0.00000  -0.00000
 This molecule is an asymmetric top.
 Rotational symmetry number  2.
 Warning -- assumption of classical behavior for rotation
           may cause significant error
 Rotational temperatures (Kelvin)      0.19209     0.06183     0.04678
 Rotational constants (GHZ):           4.00252     1.28836     0.97464
 Zero-point vibrational energy     270421.7 (Joules/Mol)
                                   64.63234 (Kcal/Mol)
 Warning -- explicit consideration of   7 degrees of freedom as
           vibrations may cause significant error
 Vibrational temperatures:     72.53   242.95   367.71   568.68   602.21
          (Kelvin)            643.73   755.10   904.45   997.60  1004.01
                             1041.96  1174.96  1241.28  1252.02  1397.99
                             1454.86  1473.69  1477.77  1503.09  1583.87
                             1607.33  1707.72  1722.37  1930.40  1945.70
                             1975.22  2147.29  2179.82  2275.53  2344.88
                             2376.77  4576.72  4595.05  4607.26  4647.86
                             4648.13

 Zero-point correction=                           0.102998 (Hartree/Particle)
 Thermal correction to Energy=                    0.109808
 Thermal correction to Enthalpy=                  0.110753
 Thermal correction to Gibbs Free Energy=         0.071648
 Sum of electronic and zero-point Energies=           -436.822323
 Sum of electronic and thermal Energies=              -436.815513
 Sum of electronic and thermal Enthalpies=            -436.814569
 Sum of electronic and thermal Free Energies=         -436.853674

                     E (Thermal)             CV                S
                      KCal/Mol        Cal/Mol-Kelvin    Cal/Mol-Kelvin
 Total                   68.906             25.629             82.302
 Electronic               0.000              0.000              0.000
 Translational            0.889              2.981             40.336
 Rotational               0.889              2.981             27.172
 Vibrational             67.128             19.668             14.795
 Vibration     1          0.595              1.977              4.801
 Vibration     2          0.625              1.881              2.448
 Vibration     3          0.666              1.753              1.692
 Vibration     4          0.762              1.480              0.980
 Vibration     5          0.781              1.430              0.897
 Vibration     6          0.807              1.367              0.804
 Vibration     7          0.880              1.195              0.599

                           ! Non-Optimized Parameters !
 Normal termination of Gaussian 16 at Fri Sep 29 09:46:16 2023.
 Gaussian 16:  ES64L-G16RevB.01 20-Dec-2017

 ---------------------------------
 # rohf/gen geom=check guess=check
 ---------------------------------

 ------------------------------
 nitrobenzene, ROHF/cc-pVTZ-F12
 ------------------------------
 Structure from the checkpoint file:  "phno2.chk"
 Charge =  0 Multiplicity = 1

                         Standard orientation:
 ---------------------------------------------------------------------
 Center     Atomic      Atomic             Coordinates (Angstroms)
 Number     Number       Type             X           Y           Z
 ---------------------------------------------------------------------
      1          6           0        0.000000    0.000000    0.240476
      2          6           0       -0.000000    1.214938   -0.429687
      3          6           0       -0.000000    1.206771   -1.817200
      4          6           0        0.000000    0.000000   -2.509455
      5          6           0       -0.000000   -1.206771   -1.817200
      6          6           0       -0.000000   -1.214938   -0.429687
      7          7           0        0.000000    0.000000    1.718515
      8          8           0        0.000000   -1.081959    2.286515
      9          8           0        0.000000    1.081959    2.286515
     10          1           0       -0.000000    2.134420    0.133967
     11          1           0       -0.000000    2.143025   -2.357231
     12          1           0        0.000000    0.000000   -3.590796
     13          1           0       -0.000000   -2.143025   -2.357231
     14          1           0       -0.000000   -2.134420    0.133967
 ---------------------------------------------------------------------

 SCF Done:  E(ROHF) =  -434.354393697     A.U. after   13 cycles

 The electronic state is 1-A1.
 Alpha  occ. eigenvalues --  -20.60034 -20.60029 -15.85327 -11.31088 -11.27415
 Alpha  occ. eigenvalues --  -11.27412 -11.27157 -11.26415 -11.26404  -1.60740
 Alpha  occ. eigenvalues --   -1.40042  -1.20180  -1.09358  -1.05461  -0.96135
 Alpha  occ. eigenvalues --   -0.86714  -0.83113  -0.78313  -0.72922  -0.72090
 Alpha  occ. eigenvalues --   -0.71029  -0.65877  -0.65221  -0.62665  -0.55702
 Alpha  occ. eigenvalues --   -0.53992  -0.53272  -0.49577  -0.49544  -0.45612
 Alpha  occ. eigenvalues --   -0.37941  -0.37085
 Alpha virt. eigenvalues --    0.03532   0.03597   0.04522   0.05381   0.07058
 Alpha virt. eigenvalues --    0.07515   0.07526   0.08317   0.09598   0.09862
 Alpha virt. eigenvalues --    0.10461   0.10934   0.11316   0.11494   0.11888

 Mulliken charges and spin densities:
               1          2
     1  C    0.270380   0.000000
     2  C   -0.057445   0.000000
     3  C   -0.192132   0.000000
     4  C   -0.134986   0.000000
     5  C   -0.192132   0.000000
     6  C   -0.057445   0.000000
     7  N    0.399168   0.000000
     8  O   -0.448577   0.000000
     9  O   -0.448577   0.000000
    10  H    0.199101   0.000000
    11  H    0.154610   0.000000
    12  H    0.154324   0.000000
    13  H    0.154610   0.000000
    14  H    0.199101   0.000000
 Sum of Mulliken charges =  -0.00000   0.00000

 Dipole moment (field-independent basis, Debye):
    X=             -0.0000    Y=             -0.0000    Z=             -5.1810  Tot=              5.1810
 Quadrupole moment (field-independent basis, Debye-Ang):
   XX=            -53.9184   YY=            -47.9302   ZZ=            -56.2912
   XY=              0.0000   XZ=             -0.0000   YZ=             -0.0000

 Normal termination of Gaussian 16 at Fri Sep 29 09:55:28 2023.
