 Gaussian 16, Revision B.01,

 ---------------------------------------
 # b3lyp/gen opt freq CPHF(Grid=OneStep)
 ---------------------------------------

 -----------------------------
 nitrosobenzene, B3LYP/pcseg-2
 -----------------------------
 Symbolic Z-matrix:
 Charge =  0 Multiplicity = 1

 SCF Done:  E(RB3LYP) =  -361.680653377     A.U. after   15 cycles
 Optimization completed.
    -- Stationary point found.
 Normal termination of Gaussian 16 at Sat Sep 30 15:35:28 2023.

 ------------------------------------------------------------------
 #N Geom=AllCheck Guess=TCheck SCRF=Check GenChk RB3LYP/ChkBas Freq
 ------------------------------------------------------------------

 Structure from the checkpoint file:  "phno.chk"
 -----------------------------
 nitrosobenzene, B3LYP/pcseg-2
 -----------------------------
 Charge =  0 Multiplicity = 1

 SCF Done:  E(RB3LYP) =  -361.680653377     A.U. after    1 cycles

  Exact polarizability:  90.464 -11.839 110.120   0.000   0.000  42.986
 Approx polarizability: 158.069 -25.186 186.515  -0.000  -0.000  67.293

                      1                      2                      3
                     A"                     A"                     A'
 Frequencies --    107.6148               244.9143               257.9726
 Red. masses --      7.4071                 6.2159                 6.3318
 Frc consts  --      0.0505                 0.2197                 0.2483
 IR Inten    --      0.1315                 0.2824                 1.9415

                      4                      5                      6
                     A"                     A'                     A"
 Frequencies --    419.9548               449.4773               473.8753
 Red. masses --      2.9039                 8.2749                 3.2317
 Frc consts  --      0.3017                 0.9850                 0.4276
 IR Inten    --      0.0013                 1.1930                 2.6839

                      7                      8                      9
                     A'                     A'                     A"
 Frequencies --    627.3552               683.8076               697.8186
 Red. masses --      6.4609                 7.4663                 2.1032
 Frc consts  --      1.4982                 2.0570                 0.6034
 IR Inten    --      0.1872                11.2832                28.7916

                     10                     11                     12
                     A"                     A'                     A"
 Frequencies --    783.0922               831.9887               868.1063
 Red. masses --      1.5387                 7.2522                 1.2468
 Frc consts  --      0.5559                 2.9577                 0.5536
 IR Inten    --     56.7377                39.7382                 0.0105

                     13                     14                     15
                     A"                     A"                     A'
 Frequencies --    971.4674              1013.6687              1020.5322
 Red. masses --      1.3829                 1.3750                 6.2187
 Frc consts  --      0.7689                 0.8324                 3.8160
 IR Inten    --      3.9820                 0.0030                 2.8857

                     16                     17                     18
                     A"                     A'                     A'
 Frequencies --   1028.1761              1037.7144              1098.1549
 Red. masses --      1.3244                 2.0210                 1.4910
 Frc consts  --      0.8249                 1.2823                 1.0594
 IR Inten    --      0.0334                 8.1779                 4.9944

                     19                     20                     21
                     A'                     A'                     A'
 Frequencies --   1128.0173              1185.6389              1199.3224
 Red. masses --      2.9608                 1.1344                 1.3787
 Frc consts  --      2.2197                 0.9395                 1.1684
 IR Inten    --    157.0548                 1.6019                12.3778

                     22                     23                     24
                     A'                     A'                     A'
 Frequencies --   1343.7628              1354.7912              1486.0203
 Red. masses --      1.4259                 6.2771                 2.3232
 Frc consts  --      1.5170                 6.7882                 3.0226
 IR Inten    --     10.0195                13.6405                43.0392

                     25                     26                     27
                     A'                     A'                     A'
 Frequencies --   1503.4912              1579.1317              1632.0941
 Red. masses --      2.1542                 6.2183                 6.1189
 Frc consts  --      2.8691                 9.1360                 9.6031
 IR Inten    --     10.7843               189.4860                 2.9412

                     28                     29                     30
                     A'                     A'                     A'
 Frequencies --   1645.7014              3174.0271              3184.9178
 Red. masses --      6.8443                 1.0863                 1.0887
 Frc consts  --     10.9214                 6.4478                 6.5069
 IR Inten    --     12.9055                 0.5057                 5.8800

                     31                     32                     33
                     A'                     A'                     A'
 Frequencies --   3191.5849              3201.2178              3206.3361
 Red. masses --      1.0917                 1.0960                 1.0935
 Frc consts  --      6.5520                 6.6175                 6.6233
 IR Inten    --      6.3010                 8.1408                 5.6279

 - Thermochemistry -
 -------------------
 Temperature   298.150 Kelvin.  Pressure   1.00000 Atm.
 Atom     1 has atomic number  6 and mass  12.00000

 Molecular mass:   107.03711 amu.
 Principal axes and moments of inertia in atomic units:
                           1         2         3
     Eigenvalues --   340.640601095.891511436.53211
           X           -0.36794   0.92985   0.00000
           Y            0.92985   0.36794   0.00000
           Z           -0.00000   0.00000   1.00000
 This molecule is an asymmetric top.
 Rotational symmetry number  1.
 Rotational temperatures (Kelvin)      0.25427     0.07904     0.06029
 Rotational constants (GHZ):           5.29808     1.64682     1.25632
 Zero-point vibrational energy     254994.5 (Joules/Mol)
                                   60.94514 (Kcal/Mol)
 Warning -- explicit consideration of   6 degrees of freedom as
           vibrations may cause significant error
 Vibrational temperatures:    154.83   352.38   371.17   604.22   646.70
          (Kelvin)            681.80   902.62   983.85  1004.01  1126.70
                             1197.05  1249.01  1397.72  1458.44  1468.32
                             1479.32  1493.04  1580.00  1622.97  1705.87
                             1725.56  1933.37  1949.24  2138.05  2163.19
                             2272.02  2348.22  2367.80  4566.72  4582.39
                             4591.98  4605.84  4613.20

 Zero-point correction=                           0.097122 (Hartree/Particle)
 Thermal correction to Energy=                    0.103330
 Thermal correction to Enthalpy=                  0.104274
 Thermal correction to Gibbs Free Energy=         0.066641
 Sum of electronic and zero-point Energies=           -361.583531
 Sum of electronic and thermal Energies=              -361.577324
 Sum of electronic and thermal Enthalpies=            -361.576380
 Sum of electronic and thermal Free Energies=         -361.614012

                     E (Thermal)             CV                S
                      KCal/Mol        Cal/Mol-Kelvin    Cal/Mol-Kelvin
 Total                   64.840             23.337             79.205
 Electronic               0.000              0.000              0.000
 Translational            0.889              2.981             39.921
 Rotational               0.889              2.981             27.774
 Vibrational             63.063             17.375             11.509
 Vibration     1          0.606              1.943              3.311
 Vibration     2          0.660              1.771              1.767
 Vibration     3          0.667              1.749              1.675
 Vibration     4          0.783              1.427              0.892
 Vibration     5          0.808              1.362              0.797
 Vibration     6          0.831              1.308              0.727

 Optimization completed.
    -- Stationary point found.
 Normal termination of Gaussian 16 at Sat Sep 30 15:53:33 2023.
 Gaussian 16:  ES64L-G16RevB.01 20-Dec-2017

 ---------------------------------
 # rohf/gen geom=check guess=check
 ---------------------------------

 --------------------------------
 nitrosobenzene, ROHF/cc-pVTZ-F12
 --------------------------------
 Structure from the checkpoint file:  "phno.chk"
 Charge =  0 Multiplicity = 1

                         Standard orientation:
 ---------------------------------------------------------------------
 Center     Atomic      Atomic             Coordinates (Angstroms)
 Number     Number       Type             X           Y           Z
 ---------------------------------------------------------------------
      1          6           0        0.000000    0.594346    0.000000
      2          6           0       -1.053388   -0.322884    0.000000
      3          6           0       -0.764931   -1.675605    0.000000
      4          6           0        0.563255   -2.109205    0.000000
      5          6           0        1.607854   -1.191362    0.000000
      6          6           0        1.325686    0.168222    0.000000
      7          7           0       -0.183833    2.021727    0.000000
      8          8           0       -1.333627    2.401834    0.000000
      9          1           0       -2.069882    0.043862    0.000000
     10          1           0       -1.566974   -2.401209    0.000000
     11          1           0        0.779545   -3.169169    0.000000
     12          1           0        2.632911   -1.534927    0.000000
     13          1           0        2.109395    0.913604    0.000000
 ---------------------------------------------------------------------

 SCF Done:  E(ROHF) =  -359.489260984     A.U. after   13 cycles

 The electronic state is 1-A'.
 Alpha  occ. eigenvalues --  -20.61952 -15.69941 -11.27655 -11.26261 -11.26247
 Alpha  occ. eigenvalues --  -11.26008 -11.25450 -11.25395  -1.50916  -1.18656
 Alpha  occ. eigenvalues --   -1.08440  -1.04266  -0.95540  -0.85506  -0.81716
 Alpha  occ. eigenvalues --   -0.74079  -0.68891  -0.68083  -0.63660  -0.61616
 Alpha  occ. eigenvalues --   -0.60806  -0.60474  -0.54243  -0.51735  -0.51722
 Alpha  occ. eigenvalues --   -0.40631  -0.36157  -0.35980
 Alpha virt. eigenvalues --    0.03946   0.04060   0.04756   0.05533   0.06954
 Alpha virt. eigenvalues --    0.07491   0.07833   0.08954   0.09514   0.09915
 Alpha virt. eigenvalues --    0.10682   0.11389   0.11479   0.12103   0.12227

 Mulliken charges and spin densities:
               1          2
     1  C    0.266299   0.000000
     2  C   -0.046950   0.000000
     3  C   -0.163496   0.000000
     4  C   -0.126313   0.000000
     5  C   -0.176075   0.000000
     6  C   -0.151242   0.000000
     7  N   -0.049080   0.000000
     8  O   -0.364230   0.000000
     9  H    0.183468   0.000000
    10  H    0.151546   0.000000
    11  H    0.150893   0.000000
    12  H    0.151525   0.000000
    13  H    0.173655   0.000000
 Sum of Mulliken charges =  -0.00000   0.00000

 Dipole moment (field-independent basis, Debye):
    X=              1.2386    Y=             -3.4841    Z=              0.0000  Tot=              3.6978
 Quadrupole moment (field-independent basis, Debye-Ang):
   XX=            -42.1928   YY=            -49.2573   ZZ=            -48.9528
   XY=              2.8775   XZ=              0.0000   YZ=              0.0000

 Normal termination of Gaussian 16 at Sat Sep 30 16:06:30 2023.
