 Gaussian 16, Revision B.01,
 Gaussian 16:  ES64L-G16RevB.01 20-Dec-2017

 --------------------
 # b3lyp/gen opt freq
 --------------------

 ---------------------------
 nitrobenzene, B3LYP/pcseg-2
 ---------------------------
 Symbolic Z-matrix:
 Charge =  0 Multiplicity = 1

 SCF Done:  E(RB3LYP) =  -436.925216728     A.U. after   13 cycles
 SCF Done:  E(RB3LYP) =  -436.925321661     A.U. after    9 cycles
 Optimization completed.
    -- Stationary point found.
 Normal termination of Gaussian 16 at Tue Mar  1 14:28:31 2022.

 ------------------------------------------------------------------
 #N Geom=AllCheck Guess=TCheck SCRF=Check GenChk RB3LYP/ChkBas Freq
 ------------------------------------------------------------------

 Structure from the checkpoint file:  "/wrk/irikura/Gau-22327.chk"
 ---------------------------
 nitrobenzene, B3LYP/pcseg-2
 ---------------------------
 Charge =  0 Multiplicity = 1

                         Standard orientation:
 ---------------------------------------------------------------------
 Center     Atomic      Atomic             Coordinates (Angstroms)
 Number     Number       Type             X           Y           Z
 ---------------------------------------------------------------------
      1          6           0        0.000000    0.000000    0.240476
      2          6           0       -0.000000    1.214938   -0.429687
      3          6           0       -0.000000    1.206771   -1.817200
      4          6           0       -0.000000   -0.000000   -2.509455
      5          6           0       -0.000000   -1.206771   -1.817200
      6          6           0       -0.000000   -1.214938   -0.429687
      7          7           0        0.000000    0.000000    1.718515
      8          8           0        0.000000   -1.081959    2.286515
      9          8           0        0.000000    1.081959    2.286515
     10          1           0       -0.000000    2.134420    0.133967
     11          1           0       -0.000000    2.143025   -2.357231
     12          1           0       -0.000000   -0.000000   -3.590796
     13          1           0       -0.000000   -2.143025   -2.357231
     14          1           0       -0.000000   -2.134420    0.133967
 ---------------------------------------------------------------------

 SCF Done:  E(RB3LYP) =  -436.925321661     A.U. after    1 cycles

 The electronic state is 1-A1.
 Alpha  occ. eigenvalues --  -19.16401 -19.16400 -14.56156 -10.24795 -10.21162
 Alpha  occ. eigenvalues --  -10.21161 -10.21012 -10.20747 -10.20740  -1.24112
 Alpha  occ. eigenvalues --   -1.06743  -0.90388  -0.81863  -0.78549  -0.71345
 Alpha  occ. eigenvalues --   -0.64470  -0.60964  -0.57649  -0.54867  -0.52716
 Alpha  occ. eigenvalues --   -0.52315  -0.48605  -0.47743  -0.46034  -0.40677
 Alpha  occ. eigenvalues --   -0.40130  -0.38313  -0.32738  -0.32373  -0.30758
 Alpha  occ. eigenvalues --   -0.29680  -0.29207
 Alpha virt. eigenvalues --   -0.10408  -0.04531  -0.01765   0.00392   0.02981
 Alpha virt. eigenvalues --    0.03900   0.06900   0.07128   0.09498   0.11625
 Alpha virt. eigenvalues --    0.13176   0.14428   0.15625   0.15757   0.18069

 Mulliken charges:
               1
     1  C    0.052247
     2  C    0.003917
     3  C   -0.021294
     4  C    0.001380
     5  C   -0.021294
     6  C    0.003917
     7  N    0.479217
     8  O   -0.363747
     9  O   -0.363747
    10  H    0.062363
    11  H    0.034687
    12  H    0.035305
    13  H    0.034687
    14  H    0.062363
 Sum of Mulliken charges =  -0.00000

 Dipole moment (field-independent basis, Debye):
    X=             -0.0000    Y=             -0.0000    Z=             -4.7931  Tot=              4.7931
 Quadrupole moment (field-independent basis, Debye-Ang):
   XX=            -53.0783   YY=            -48.2405   ZZ=            -55.9258
   XY=             -0.0000   XZ=             -0.0000   YZ=             -0.0000

  Exact polarizability:  44.224   0.000  94.409   0.000  -0.000 111.512
 Approx polarizability:  69.150   0.000 180.273  -0.000   0.000 172.869

                      1                      2                      3
                     A2                     B1                     B2
 Frequencies --     50.4028               168.8596               255.5721
 Red. masses --      7.9957                 5.1071                 6.3780
 Frc consts  --      0.0120                 0.0858                 0.2454
 IR Inten    --      0.0000                 0.9461                 0.9348

                      4                      5                      6
                     A1                     A2                     B1
 Frequencies --    395.2513               418.5594               447.4118
 Red. masses --      9.3259                 2.9012                 3.5925
 Frc consts  --      0.8584                 0.2995                 0.4237
 IR Inten    --      1.0312                 0.0000                 0.7129

                      7                      8                      9
                     B2                     B2                     B1
 Frequencies --    524.8188               628.6239               693.3675
 Red. masses --      8.2280                 6.4102                 2.7984
 Frc consts  --      1.3353                 1.4925                 0.7926
 IR Inten    --      1.2166                 0.0480                10.5777

                     10                     11                     12
                     A1                     B1                     B1
 Frequencies --    697.8205               724.1979               816.6364
 Red. masses --      7.1766                 1.9564                 2.5815
 Frc consts  --      2.0590                 0.6045                 1.0143
 IR Inten    --      8.5271                79.0664                10.5520

                     13                     14                     15
                     A2                     A1                     B1
 Frequencies --    862.7258               870.1966               971.6459
 Red. masses --      1.2450                10.7398                 1.4134
 Frc consts  --      0.5460                 4.7916                 0.7862
 IR Inten    --      0.0000                35.2507                 3.4886

                     16                     17                     18
                     A2                     A1                     B1
 Frequencies --   1011.1765              1024.2629              1027.1007
 Red. masses --      1.3684                 6.2546                 1.3154
 Frc consts  --      0.8243                 3.8661                 0.8176
 IR Inten    --      0.0000                 0.3152                 0.0758

                     19                     20                     21
                     A1                     B2                     A1
 Frequencies --   1044.6981              1100.8378              1117.1438
 Red. masses --      2.1609                 1.4620                 3.4031
 Frc consts  --      1.3895                 1.0438                 2.5023
 IR Inten    --      7.4358                 8.5446                35.1797

                     22                     23                     24
                     B2                     A1                     B2
 Frequencies --   1186.9219              1197.1037              1341.6885
 Red. masses --      1.1248                 1.2277                 1.3991
 Frc consts  --      0.9336                 1.0366                 1.4839
 IR Inten    --      0.6884                 3.1301                 0.3415

                     25                     26                     27
                     B2                     A1                     B2
 Frequencies --   1352.3241              1372.8580              1492.4402
 Red. masses --      6.2910                14.0827                 2.2717
 Frc consts  --      6.7785                15.6382                 2.9813
 IR Inten    --     13.3174               282.6282                 0.3908

                     28                     29                     30
                     A1                     B2                     A1
 Frequencies --   1515.0419              1581.5689              1629.7724
 Red. masses --      2.1114                10.3177                 5.5307
 Frc consts  --      2.8554                15.2057                 8.6554
 IR Inten    --     10.6532               254.8444                 2.9414

                     31                     32                     33
                     B2                     A1                     B2
 Frequencies --   1651.9366              3180.9753              3193.7157
 Red. masses --      7.0527                 1.0868                 1.0905
 Frc consts  --     11.3394                 6.4792                 6.5536
 IR Inten    --     27.3576                 0.6697                 8.4677

                     34                     35                     36
                     A1                     B2                     A1
 Frequencies --   3202.2011              3230.4091              3230.5992
 Red. masses --      1.0954                 1.0922                 1.0934
 Frc consts  --      6.6177                 6.7153                 6.7233
 IR Inten    --      7.4877                 0.6285                 5.0473

 - Thermochemistry -
 -------------------
 Temperature   298.150 Kelvin.  Pressure   1.00000 Atm.
 Atom     1 has atomic number  6 and mass  12.00000

 Molecular mass:   123.03203 amu.
 Principal axes and moments of inertia in atomic units:
                           1         2         3
     Eigenvalues --   450.900731400.806901851.70763
           X            0.00000  -0.00000   1.00000
           Y            0.00000   1.00000   0.00000
           Z            1.00000  -0.00000   0.00000
 This molecule is an asymmetric top.
 Rotational symmetry number  2.
 Warning -- assumption of classical behavior for rotation
           may cause significant error
 Rotational temperatures (Kelvin)      0.19209     0.06183     0.04678
 Rotational constants (GHZ):           4.00252     1.28836     0.97464
 Zero-point vibrational energy     270421.0 (Joules/Mol)
                                   64.63218 (Kcal/Mol)
 Warning -- explicit consideration of   7 degrees of freedom as
           vibrations may cause significant error
 Vibrational temperatures:     72.52   242.95   367.71   568.68   602.21
          (Kelvin)            643.73   755.10   904.45   997.60  1004.01
                             1041.96  1174.96  1241.27  1252.02  1397.98
                             1454.86  1473.69  1477.77  1503.09  1583.86
                             1607.32  1707.72  1722.37  1930.39  1945.69
                             1975.24  2147.29  2179.81  2275.52  2344.88
                             2376.77  4576.71  4595.04  4607.25  4647.84
                             4648.11

 Zero-point correction=                           0.102998 (Hartree/Particle)
 Thermal correction to Energy=                    0.109808
 Thermal correction to Enthalpy=                  0.110752
 Thermal correction to Gibbs Free Energy=         0.071648
 Sum of electronic and zero-point Energies=           -436.822324
 Sum of electronic and thermal Energies=              -436.815514
 Sum of electronic and thermal Enthalpies=            -436.814569
 Sum of electronic and thermal Free Energies=         -436.853674

                     E (Thermal)             CV                S
                      KCal/Mol        Cal/Mol-Kelvin    Cal/Mol-Kelvin
 Total                   68.906             25.629             82.303
 Electronic               0.000              0.000              0.000
 Translational            0.889              2.981             40.336
 Rotational               0.889              2.981             27.172
 Vibrational             67.128             19.668             14.795
 Vibration     1          0.595              1.977              4.802
 Vibration     2          0.625              1.881              2.448
 Vibration     3          0.666              1.753              1.692
 Vibration     4          0.762              1.480              0.980
 Vibration     5          0.781              1.430              0.897
 Vibration     6          0.807              1.367              0.804
 Vibration     7          0.880              1.195              0.599

                           ! Non-Optimized Parameters !
 Normal termination of Gaussian 16 at Tue Mar  1 14:33:10 2022.
