 Gaussian 16, Revision B.01,

 ---------------------------------------
 # b3lyp/gen opt freq CPHF(Grid=OneStep)
 ---------------------------------------

 -----------------------
 phenoxyl, B3LYP/pcseg-2
 -----------------------
 Symbolic Z-matrix:
 Charge =  0 Multiplicity = 2

 SCF Done:  E(UB3LYP) =  -306.948643663     A.U. after   18 cycles
 Optimization completed.
    -- Stationary point found.
 Normal termination of Gaussian 16 at Wed Sep 27 16:00:20 2023.

 ------------------------------------------------------------------
 #N Geom=AllCheck Guess=TCheck SCRF=Check GenChk UB3LYP/ChkBas Freq
 ------------------------------------------------------------------

 Structure from the checkpoint file:  "PhO.chk"
 -----------------------
 phenoxyl, B3LYP/pcseg-2
 -----------------------
 Charge =  0 Multiplicity = 2

 SCF Done:  E(UB3LYP) =  -306.948643663     A.U. after    1 cycles

  Exact polarizability:  39.176   0.000  77.285   0.000  -0.000  97.990
 Approx polarizability:  60.256   0.000 117.805   0.000   0.000 172.053

                      1                      2                      3
                     B1                     A2                     B2
 Frequencies --    185.7247               378.9135               447.5439
 Red. masses --      5.0283                 3.0579                 5.9111
 Frc consts  --      0.1022                 0.2587                 0.6976
 IR Inten    --      2.7687                 0.0000                 4.4812

                      4                      5                      6
                     B1                     A1                     B2
 Frequencies --    480.9707               532.7784               598.9677
 Red. masses --      2.9069                 8.0204                 6.8336
 Frc consts  --      0.3962                 1.3413                 1.4445
 IR Inten    --      0.7016                 2.3501                 0.4688

                      7                      8                      9
                     B1                     B1                     A2
 Frequencies --    653.8021               802.8675               805.0194
 Red. masses --      1.5063                 2.1953                 1.2438
 Frc consts  --      0.3794                 0.8337                 0.4749
 IR Inten    --     43.0531                42.1388                 0.0000

                     10                     11                     12
                     A1                     B1                     A1
 Frequencies --    806.1760               931.3544               989.6460
 Red. masses --      5.1224                 1.5314                 5.2464
 Frc consts  --      1.9615                 0.7826                 3.0274
 IR Inten    --      1.6311                 9.0324                 2.5542

                     13                     14                     15
                     A2                     B1                     A1
 Frequencies --    991.7539               996.6398              1010.8719
 Red. masses --      1.3328                 1.2888                 2.4264
 Frc consts  --      0.7724                 0.7543                 1.4608
 IR Inten    --      0.0000                 0.3566                 0.1726

                     16                     17                     18
                     B2                     B2                     A1
 Frequencies --   1092.2154              1166.6450              1168.1436
 Red. masses --      1.5402                 1.2010                 1.2199
 Frc consts  --      1.0825                 0.9631                 0.9808
 IR Inten    --      8.3998                 1.6325                 0.2922

                     19                     20                     21
                     B2                     B2                     A1
 Frequencies --   1277.4389              1341.1785              1422.3463
 Red. masses --      2.8251                 2.2413                 2.7121
 Frc consts  --      2.7163                 2.3754                 3.2327
 IR Inten    --      7.5891                 5.2235                 0.9548

                     22                     23                     24
                     B2                     A1                     B2
 Frequencies --   1447.4329              1481.9942              1548.0465
 Red. masses --      2.2342                 3.0681                 3.0770
 Frc consts  --      2.7578                 3.9702                 4.3445
 IR Inten    --      3.4090                26.9085                 3.5578

                     25                     26                     27
                     A1                     A1                     B2
 Frequencies --   1587.0914              3171.6255              3177.8122
 Red. masses --      4.7969                 1.0860                 1.0887
 Frc consts  --      7.1190                 6.4366                 6.4779
 IR Inten    --     39.1566                 0.6711                 7.3814

                     28                     29                     30
                     A1                     B2                     A1
 Frequencies --   3192.8038              3200.2230              3203.0921
 Red. masses --      1.0911                 1.0937                 1.0966
 Frc consts  --      6.5534                 6.5994                 6.6286
 IR Inten    --     11.4888                 6.7724                 1.3914

 - Thermochemistry -
 -------------------
 Temperature   298.150 Kelvin.  Pressure   1.00000 Atm.
 Atom     1 has atomic number  6 and mass  12.00000

 Molecular mass:    93.03404 amu.
 Principal axes and moments of inertia in atomic units:
                           1         2         3
     Eigenvalues --   325.43992 644.13978 969.57970
           X            0.00000  -0.00000   1.00000
           Y            0.00000   1.00000   0.00000
           Z            1.00000  -0.00000   0.00000
 This molecule is an asymmetric top.
 Rotational symmetry number  2.
 Rotational temperatures (Kelvin)      0.26614     0.13446     0.08933
 Rotational constants (GHZ):           5.54554     2.80179     1.86136
 Zero-point vibrational energy     239798.1 (Joules/Mol)
                                   57.31313 (Kcal/Mol)
 Warning -- explicit consideration of   6 degrees of freedom as
           vibrations may cause significant error
 Vibrational temperatures:    267.22   545.17   643.92   692.01   766.55
          (Kelvin)            861.78   940.68  1155.15  1158.24  1159.91
                             1340.01  1423.88  1426.91  1433.94  1454.42
                             1571.45  1678.54  1680.70  1837.95  1929.66
                             2046.44  2082.53  2132.26  2227.29  2283.47
                             4563.26  4572.16  4593.73  4604.41  4608.54

 Zero-point correction=                           0.091334 (Hartree/Particle)
 Thermal correction to Energy=                    0.096619
 Thermal correction to Enthalpy=                  0.097563
 Thermal correction to Gibbs Free Energy=         0.062440
 Sum of electronic and zero-point Energies=           -306.857309
 Sum of electronic and thermal Energies=              -306.852025
 Sum of electronic and thermal Enthalpies=            -306.851081
 Sum of electronic and thermal Free Energies=         -306.886203

                     E (Thermal)             CV                S
                      KCal/Mol        Cal/Mol-Kelvin    Cal/Mol-Kelvin
 Total                   60.629             20.452             73.922
 Electronic               0.000              0.000              1.377
 Translational            0.889              2.981             39.503
 Rotational               0.889              2.981             25.433
 Vibrational             58.852             14.490              7.608
 Vibration     1          0.632              1.859              2.270
 Vibration     2          0.749              1.515              1.043
 Vibration     3          0.807              1.366              0.803
 Vibration     4          0.837              1.292              0.707
 Vibration     5          0.888              1.177              0.581
 Vibration     6          0.957              1.034              0.451

 Optimization completed.
    -- Stationary point found.
 Normal termination of Gaussian 16 at Wed Sep 27 16:19:02 2023.
 Gaussian 16:  ES64L-G16RevB.01 20-Dec-2017

 ---------------------------------
 # rohf/gen geom=check guess=check
 ---------------------------------

 --------------------------
 phenoxyl, ROHF/cc-pVTZ-F12
 --------------------------
 Structure from the checkpoint file:  "PhO.chk"
 Charge =  0 Multiplicity = 2

                         Standard orientation:
 ---------------------------------------------------------------------
 Center     Atomic      Atomic             Coordinates (Angstroms)
 Number     Number       Type             X           Y           Z
 ---------------------------------------------------------------------
      1          6           0       -0.000000    0.000000    1.045011
      2          6           0       -0.000000    1.236095    0.288399
      3          6           0       -0.000000   -1.236095    0.288399
      4          6           0        0.000000    1.220702   -1.082937
      5          6           0       -0.000000   -1.220702   -1.082937
      6          6           0        0.000000   -0.000000   -1.777959
      7          8           0       -0.000000    0.000000    2.295544
      8          1           0       -0.000000    2.158551    0.852409
      9          1           0       -0.000000   -2.158551    0.852409
     10          1           0        0.000000    2.148898   -1.638803
     11          1           0       -0.000000   -2.148898   -1.638803
     12          1           0        0.000000   -0.000000   -2.859424
 ---------------------------------------------------------------------

 SCF Done:  E(ROHF) =  -305.056152131     A.U. after   19 cycles

 The electronic state is 2-B1.
 Alpha  occ. eigenvalues --  -20.54243 -11.31622 -11.27898 -11.26187 -11.26183
 Alpha  occ. eigenvalues --  -11.26013 -11.26009  -1.35753  -1.16146  -1.04656
 Alpha  occ. eigenvalues --   -0.99569  -0.85223  -0.82434  -0.72067  -0.66999
 Alpha  occ. eigenvalues --   -0.66188  -0.61757  -0.60757  -0.54656  -0.54334
 Alpha  occ. eigenvalues --   -0.53698  -0.44315  -0.42891  -0.36752  -0.11016
 Alpha virt. eigenvalues --    0.03828   0.04653   0.05623   0.06995   0.07567
 Alpha virt. eigenvalues --    0.07703   0.08957   0.09590   0.09898   0.10058
 Alpha virt. eigenvalues --    0.11241   0.11432   0.11515   0.12195   0.12555

 Mulliken charges and spin densities:
               1          2
     1  C    0.464980   0.091232
     2  C   -0.121018   0.179712
     3  C   -0.121018   0.179712
     4  C   -0.179064   0.019859
     5  C   -0.179064   0.019859
     6  C   -0.070373   0.255156
     7  O   -0.644836   0.243513
     8  H    0.190653   0.001729
     9  H    0.190653   0.001729
    10  H    0.155457   0.000393
    11  H    0.155457   0.000393
    12  H    0.158172   0.006713
 Sum of Mulliken charges =  -0.00000   1.00000

 Dipole moment (field-independent basis, Debye):
    X=             -0.0000    Y=              0.0000    Z=             -4.5585  Tot=              4.5585
 Quadrupole moment (field-independent basis, Debye-Ang):
   XX=            -43.5802   YY=            -34.4002   ZZ=            -46.1390
   XY=              0.0000   XZ=              0.0000   YZ=              0.0000

 Normal termination of Gaussian 16 at Wed Sep 27 16:26:07 2023.
