 Gaussian 16, Revision B.01,
 Gaussian 16:  ES64L-G16RevB.01 20-Dec-2017

 --------------------
 # b3lyp/gen opt freq
 --------------------

 -----------------------
 phenoxyl, B3LYP/pcseg-2
 -----------------------
 Symbolic Z-matrix:
 Charge =  0 Multiplicity = 2

 SCF Done:  E(UB3LYP) =  -306.948559426     A.U. after   18 cycles
 SCF Done:  E(UB3LYP) =  -306.948642218     A.U. after   10 cycles
 SCF Done:  E(UB3LYP) =  -306.948643663     A.U. after    9 cycles
 Optimization completed.
    -- Stationary point found.
 Normal termination of Gaussian 16 at Thu Jun 16 08:04:02 2022.

 ------------------------------------------------------------------
 #N Geom=AllCheck Guess=TCheck SCRF=Check GenChk UB3LYP/ChkBas Freq
 ------------------------------------------------------------------

 Structure from the checkpoint file:  "/wrk/irikura/Gau-12173.chk"
 -----------------------
 phenoxyl, B3LYP/pcseg-2
 -----------------------
 Charge =  0 Multiplicity = 2

                         Standard orientation:
 ---------------------------------------------------------------------
 Center     Atomic      Atomic             Coordinates (Angstroms)
 Number     Number       Type             X           Y           Z
 ---------------------------------------------------------------------
      1          6           0        0.000000   -0.000000    1.045011
      2          6           0        0.000000    1.236095    0.288399
      3          6           0       -0.000000   -1.236095    0.288399
      4          6           0        0.000000    1.220702   -1.082937
      5          6           0       -0.000000   -1.220702   -1.082937
      6          6           0        0.000000    0.000000   -1.777959
      7          8           0        0.000000   -0.000000    2.295544
      8          1           0        0.000000    2.158551    0.852409
      9          1           0       -0.000000   -2.158551    0.852409
     10          1           0        0.000000    2.148898   -1.638803
     11          1           0       -0.000000   -2.148898   -1.638803
     12          1           0        0.000000    0.000000   -2.859424
 ---------------------------------------------------------------------

 SCF Done:  E(UB3LYP) =  -306.948643663     A.U. after    1 cycles

 The electronic state is 2-B1.
 Alpha  occ. eigenvalues --  -19.12394 -10.25121 -10.21606 -10.20233 -10.20232
 Alpha  occ. eigenvalues --  -10.20146 -10.20145  -1.04132  -0.87507  -0.78016
 Alpha  occ. eigenvalues --   -0.74819  -0.63418  -0.61140  -0.53775  -0.49289
 Alpha  occ. eigenvalues --   -0.48020  -0.45315  -0.43910  -0.43555  -0.39283
 Alpha  occ. eigenvalues --   -0.38175  -0.36877  -0.29517  -0.27193  -0.24371
 Alpha virt. eigenvalues --   -0.04011  -0.02077   0.00735   0.03132   0.04382
 Alpha virt. eigenvalues --    0.06981   0.07250   0.11492   0.11512   0.14618
 Alpha virt. eigenvalues --    0.14788   0.16316   0.17521   0.18420   0.18867

  Beta  occ. eigenvalues --  -19.11230 -10.25280 -10.21042 -10.20366 -10.20364
  Beta  occ. eigenvalues --  -10.19791 -10.19790  -1.02119  -0.86821  -0.77647
  Beta  occ. eigenvalues --   -0.73476  -0.63029  -0.60734  -0.53392  -0.49031
  Beta  occ. eigenvalues --   -0.47637  -0.45221  -0.43115  -0.40874  -0.38923
  Beta  occ. eigenvalues --   -0.37933  -0.33398  -0.28439  -0.26159
  Beta virt. eigenvalues --   -0.15031  -0.02689   0.00180   0.00766   0.03122
  Beta virt. eigenvalues --    0.04483   0.07036   0.07311   0.11732   0.12516
  Beta virt. eigenvalues --    0.14778   0.15304   0.16344   0.17644   0.18548

 Mulliken charges and spin densities:
               1          2
     1  C    0.330374  -0.072798
     2  C   -0.047967   0.299978
     3  C   -0.047967   0.299978
     4  C   -0.029190  -0.151452
     5  C   -0.029190  -0.151452
     6  C    0.039571   0.397483
     7  O   -0.418121   0.412365
     8  H    0.048741  -0.013111
     9  H    0.048741  -0.013111
    10  H    0.031642   0.004854
    11  H    0.031642   0.004854
    12  H    0.041724  -0.017590
 Sum of Mulliken charges =  -0.00000   1.00000

 Dipole moment (field-independent basis, Debye):
    X=             -0.0000    Y=              0.0000    Z=             -3.9698  Tot=              3.9698
 Quadrupole moment (field-independent basis, Debye-Ang):
   XX=            -42.7925   YY=            -34.9428   ZZ=            -45.5400
   XY=              0.0000   XZ=              0.0000   YZ=             -0.0000

  Exact polarizability:  39.175   0.000  77.285   0.000  -0.000  97.990
 Approx polarizability:  60.256   0.000 117.805   0.000  -0.000 172.053

                      1                      2                      3
                     B1                     A2                     B2
 Frequencies --    185.7254               378.9148               447.5395
 Red. masses --      5.0283                 3.0579                 5.9111
 Frc consts  --      0.1022                 0.2587                 0.6976
 IR Inten    --      2.7690                 0.0000                 4.4816

                      4                      5                      6
                     B1                     A1                     B2
 Frequencies --    480.9700               532.7780               598.9672
 Red. masses --      2.9069                 8.0204                 6.8336
 Frc consts  --      0.3962                 1.3413                 1.4445
 IR Inten    --      0.7020                 2.3495                 0.4688

                      7                      8                      9
                     B1                     B1                     A2
 Frequencies --    653.8022               802.8656               805.0121
 Red. masses --      1.5063                 2.1953                 1.2438
 Frc consts  --      0.3794                 0.8337                 0.4749
 IR Inten    --     43.0512                42.1357                 0.0000

                     10                     11                     12
                     A1                     B1                     A1
 Frequencies --    806.1711               931.3541               989.6457
 Red. masses --      5.1224                 1.5314                 5.2464
 Frc consts  --      1.9614                 0.7826                 3.0274
 IR Inten    --      1.6312                 9.0328                 2.5545

                     13                     14                     15
                     A2                     B1                     A1
 Frequencies --    991.7536               996.6402              1010.8691
 Red. masses --      1.3328                 1.2888                 2.4264
 Frc consts  --      0.7724                 0.7543                 1.4608
 IR Inten    --      0.0000                 0.3565                 0.1725

                     16                     17                     18
                     B2                     B2                     A1
 Frequencies --   1092.2134              1166.6443              1168.1435
 Red. masses --      1.5402                 1.2010                 1.2199
 Frc consts  --      1.0825                 0.9631                 0.9808
 IR Inten    --      8.3984                 1.6319                 0.2921

                     19                     20                     21
                     B2                     B2                     A1
 Frequencies --   1277.4374              1341.1765              1422.3476
 Red. masses --      2.8252                 2.2414                 2.7119
 Frc consts  --      2.7163                 2.3754                 3.2325
 IR Inten    --      7.5880                 5.2230                 0.9540

                     22                     23                     24
                     B2                     A1                     B2
 Frequencies --   1447.4306              1481.9919              1548.0441
 Red. masses --      2.2341                 3.0682                 3.0770
 Frc consts  --      2.7577                 3.9704                 4.3445
 IR Inten    --      3.4088                26.9108                 3.5584

                     25                     26                     27
                     A1                     A1                     B2
 Frequencies --   1587.0918              3171.6213              3177.8096
 Red. masses --      4.7970                 1.0860                 1.0887
 Frc consts  --      7.1191                 6.4366                 6.4779
 IR Inten    --     39.1620                 0.6705                 7.3811

                     28                     29                     30
                     A1                     B2                     A1
 Frequencies --   3192.7980              3200.2183              3203.0879
 Red. masses --      1.0911                 1.0937                 1.0966
 Frc consts  --      6.5534                 6.5994                 6.6286
 IR Inten    --     11.4896                 6.7733                 1.3927

 - Thermochemistry -
 -------------------
 Temperature   298.150 Kelvin.  Pressure   1.00000 Atm.
 Atom     1 has atomic number  6 and mass  12.00000

 Molecular mass:    93.03404 amu.
 Principal axes and moments of inertia in atomic units:
                           1         2         3
     Eigenvalues --   325.43993 644.13990 969.57983
           X            0.00000   0.00000   1.00000
           Y            0.00000   1.00000   0.00000
           Z            1.00000   0.00000   0.00000
 This molecule is an asymmetric top.
 Rotational symmetry number  2.
 Rotational temperatures (Kelvin)      0.26614     0.13446     0.08933
 Rotational constants (GHZ):           5.54554     2.80178     1.86136
 Zero-point vibrational energy     239797.8 (Joules/Mol)
                                   57.31305 (Kcal/Mol)
 Warning -- explicit consideration of   6 degrees of freedom as
           vibrations may cause significant error
 Vibrational temperatures:    267.22   545.17   643.91   692.01   766.55
          (Kelvin)            861.78   940.68  1155.14  1158.23  1159.90
                             1340.01  1423.88  1426.91  1433.94  1454.42
                             1571.45  1678.54  1680.70  1837.95  1929.65
                             2046.44  2082.53  2132.26  2227.29  2283.47
                             4563.26  4572.16  4593.72  4604.40  4608.53

 Zero-point correction=                           0.091334 (Hartree/Particle)
 Thermal correction to Energy=                    0.096619
 Thermal correction to Enthalpy=                  0.097563
 Thermal correction to Gibbs Free Energy=         0.062440
 Sum of electronic and zero-point Energies=           -306.857309
 Sum of electronic and thermal Energies=              -306.852025
 Sum of electronic and thermal Enthalpies=            -306.851081
 Sum of electronic and thermal Free Energies=         -306.886203

                     E (Thermal)             CV                S
                      KCal/Mol        Cal/Mol-Kelvin    Cal/Mol-Kelvin
 Total                   60.629             20.452             73.922
 Electronic               0.000              0.000              1.377
 Translational            0.889              2.981             39.503
 Rotational               0.889              2.981             25.433
 Vibrational             58.852             14.490              7.608
 Vibration     1          0.632              1.859              2.270
 Vibration     2          0.749              1.515              1.043
 Vibration     3          0.807              1.366              0.803
 Vibration     4          0.837              1.292              0.707
 Vibration     5          0.888              1.177              0.581
 Vibration     6          0.957              1.034              0.451

 Optimization completed.
    -- Stationary point found.
 Normal termination of Gaussian 16 at Thu Jun 16 08:07:32 2022.
