 Gaussian 16, Revision B.01,

 ---------------------------------------
 # b3lyp/gen opt freq CPHF(Grid=OneStep)
 ---------------------------------------

 ---------------------
 phenol, B3LYP/pcseg-2
 ---------------------
 Symbolic Z-matrix:
 Charge =  0 Multiplicity = 1

 SCF Done:  E(RB3LYP) =  -307.595930541     A.U. after   12 cycles
 Optimization completed.
    -- Stationary point found.
 Normal termination of Gaussian 16 at Sat Sep 30 07:53:10 2023.

 ------------------------------------------------------------------
 #N Geom=AllCheck Guess=TCheck SCRF=Check GenChk RB3LYP/ChkBas Freq
 ------------------------------------------------------------------

 Structure from the checkpoint file:  "phoh.chk"
 ---------------------
 phenol, B3LYP/pcseg-2
 ---------------------
 Charge =  0 Multiplicity = 1

 SCF Done:  E(RB3LYP) =  -307.595930541     A.U. after    1 cycles

  Exact polarizability:  81.299  -1.398  89.618   0.000   0.000  41.545
 Approx polarizability: 133.691  -1.210 144.452  -0.000  -0.000  63.495

                      1                      2                      3
                     A"                     A"                     A'
 Frequencies --    229.0713               343.1368               407.2217
 Red. masses --      4.3358                 1.1087                 3.9397
 Frc consts  --      0.1340                 0.0769                 0.3849
 IR Inten    --      0.9980               101.8410                 9.7105

                      4                      5                      6
                     A"                     A"                     A'
 Frequencies --    422.2638               515.7014               537.8933
 Red. masses --      2.9704                 2.7210                 7.2817
 Frc consts  --      0.3121                 0.4264                 1.2413
 IR Inten    --      0.4963                14.3013                 2.0212

                      7                      8                      9
                     A'                     A"                     A"
 Frequencies --    635.0690               701.1568               765.9241
 Red. masses --      6.4419                 2.1937                 1.6551
 Frc consts  --      1.5308                 0.6354                 0.5721
 IR Inten    --      0.3699                25.2884                62.8051

                     10                     11                     12
                     A"                     A'                     A"
 Frequencies --    828.7654               831.3883               897.1908
 Red. masses --      1.2540                 5.7714                 1.4535
 Frc consts  --      0.5075                 2.3504                 0.6894
 IR Inten    --      0.0000                21.4045                 6.5326

                     13                     14                     15
                     A"                     A"                     A'
 Frequencies --    973.5924               992.7398              1018.5573
 Red. masses --      1.3393                 1.2713                 6.1240
 Frc consts  --      0.7480                 0.7382                 3.7433
 IR Inten    --      0.0444                 0.1054                 3.1247

                     16                     17                     18
                     A'                     A'                     A'
 Frequencies --   1045.8216              1095.5390              1178.1786
 Red. masses --      2.0764                 1.5605                 1.1836
 Frc consts  --      1.3380                 1.1035                 0.9680
 IR Inten    --      4.3520                13.9473                27.9798

                     19                     20                     21
                     A'                     A'                     A'
 Frequencies --   1192.9024              1193.5105              1282.2465
 Red. masses --      1.1571                 1.2457                 3.6189
 Frc consts  --      0.9701                 1.0455                 3.5057
 IR Inten    --      7.2181               122.9303                87.9208

                     22                     23                     24
                     A'                     A'                     A'
 Frequencies --   1348.2332              1375.9761              1506.0173
 Red. masses --      4.2394                 1.3106                 2.2464
 Frc consts  --      4.5403                 1.4620                 3.0020
 IR Inten    --      7.7290                23.4382                23.1007

                     25                     26                     27
                     A'                     A'                     A'
 Frequencies --   1533.2835              1636.2702              1647.1932
 Red. masses --      2.3190                 5.7294                 5.6263
 Frc consts  --      3.2122                 9.0379                 8.9941
 IR Inten    --     54.6453                46.3113                38.7100

                     28                     29                     30
                     A'                     A'                     A'
 Frequencies --   3154.0754              3173.2955              3181.5599
 Red. masses --      1.0882                 1.0864                 1.0909
 Frc consts  --      6.3785                 6.4453                 6.5060
 IR Inten    --     13.3392                 0.1560                15.2955

                     31                     32                     33
                     A'                     A'                     A'
 Frequencies --   3195.0064              3201.4677              3827.8807
 Red. masses --      1.0929                 1.0967                 1.0660
 Frc consts  --      6.5729                 6.6229                 9.2026
 IR Inten    --     15.2684                 4.9606                60.9447

 - Thermochemistry -
 -------------------
 Temperature   298.150 Kelvin.  Pressure   1.00000 Atm.
 Atom     1 has atomic number  6 and mass  12.00000

 Molecular mass:    94.04186 amu.
 Principal axes and moments of inertia in atomic units:
                           1         2         3
     Eigenvalues --   316.78755 686.319761003.10731
           X           -0.00697   0.99998   0.00000
           Y            0.99998   0.00697   0.00000
           Z           -0.00000   0.00000   1.00000
 This molecule is an asymmetric top.
 Rotational symmetry number  1.
 Rotational temperatures (Kelvin)      0.27341     0.12620     0.08635
 Rotational constants (GHZ):           5.69701     2.62959     1.79915
 Zero-point vibrational energy     274352.3 (Joules/Mol)
                                   65.57178 (Kcal/Mol)
 Warning -- explicit consideration of   6 degrees of freedom as
           vibrations may cause significant error
 Vibrational temperatures:    329.58   493.70   585.90   607.54   741.98
          (Kelvin)            773.91   913.72  1008.81  1101.99  1192.41
                             1196.18  1290.86  1400.78  1428.33  1465.48
                             1504.70  1576.24  1695.14  1716.32  1717.20
                             1844.87  1939.81  1979.72  2166.82  2206.05
                             2354.23  2369.94  4538.01  4565.66  4577.56
                             4596.90  4606.20  5507.47

 Zero-point correction=                           0.104495 (Hartree/Particle)
 Thermal correction to Energy=                    0.110018
 Thermal correction to Enthalpy=                  0.110962
 Thermal correction to Gibbs Free Energy=         0.075508
 Sum of electronic and zero-point Energies=           -307.491435
 Sum of electronic and thermal Energies=              -307.485913
 Sum of electronic and thermal Enthalpies=            -307.484969
 Sum of electronic and thermal Free Energies=         -307.520422

                     E (Thermal)             CV                S
                      KCal/Mol        Cal/Mol-Kelvin    Cal/Mol-Kelvin
 Total                   69.037             21.838             74.619
 Electronic               0.000              0.000              0.000
 Translational            0.889              2.981             39.535
 Rotational               0.889              2.981             26.880
 Vibrational             67.260             15.877              8.204
 Vibration     1          0.652              1.797              1.886
 Vibration     2          0.722              1.589              1.198
 Vibration     3          0.772              1.455              0.936
 Vibration     4          0.785              1.422              0.884
 Vibration     5          0.871              1.215              0.620
 Vibration     6          0.893              1.166              0.570

 Optimization completed.
    -- Stationary point found.
 Normal termination of Gaussian 16 at Sat Sep 30 08:08:58 2023.
 Gaussian 16:  ES64L-G16RevB.01 20-Dec-2017

 ---------------------------------
 # rohf/gen geom=check guess=check
 ---------------------------------

 ------------------------
 phenol, ROHF/cc-pVTZ-F12
 ------------------------
 Structure from the checkpoint file:  "phoh.chk"
 Charge =  0 Multiplicity = 1

                         Standard orientation:
 ---------------------------------------------------------------------
 Center     Atomic      Atomic             Coordinates (Angstroms)
 Number     Number       Type             X           Y           Z
 ---------------------------------------------------------------------
      1          6           0       -0.000000    0.936554    0.000000
      2          6           0       -1.200370    0.230288    0.000000
      3          6           0       -1.183790   -1.159983    0.000000
      4          6           0        0.021579   -1.850839    0.000000
      5          6           0        1.216103   -1.135819    0.000000
      6          6           0        1.212753    0.251658    0.000000
      7          8           0        0.047913    2.302714    0.000000
      8          1           0       -0.844264    2.660040    0.000000
      9          1           0       -2.142938    0.765396    0.000000
     10          1           0       -2.120416   -1.701187    0.000000
     11          1           0        0.031511   -2.931621    0.000000
     12          1           0        2.161059   -1.662424    0.000000
     13          1           0        2.134100    0.816933    0.000000
 ---------------------------------------------------------------------

 SCF Done:  E(ROHF) =  -305.689296315     A.U. after   12 cycles

 The electronic state is 1-A'.
 Alpha  occ. eigenvalues --  -20.58942 -11.30305 -11.24122 -11.23925 -11.23308
 Alpha  occ. eigenvalues --  -11.22713 -11.22590  -1.40654  -1.15005  -1.02212
 Alpha  occ. eigenvalues --   -1.00696  -0.84861  -0.82503  -0.73619  -0.68719
 Alpha  occ. eigenvalues --   -0.65392  -0.61192  -0.59294  -0.59231  -0.57018
 Alpha  occ. eigenvalues --   -0.51847  -0.49526  -0.48574  -0.34440  -0.31717
 Alpha virt. eigenvalues --    0.04477   0.05012   0.05569   0.06718   0.07218
 Alpha virt. eigenvalues --    0.08536   0.09158   0.09829   0.10321   0.10682
 Alpha virt. eigenvalues --    0.11630   0.11643   0.12436   0.12582   0.12812

 Mulliken charges and spin densities:
               1          2
     1  C    0.360800  -0.000000
     2  C   -0.115240  -0.000000
     3  C   -0.161081  -0.000000
     4  C   -0.174426  -0.000000
     5  C   -0.150706  -0.000000
     6  C   -0.132492  -0.000000
     7  O   -0.743955  -0.000000
     8  H    0.403667  -0.000000
     9  H    0.117111  -0.000000
    10  H    0.144210  -0.000000
    11  H    0.140704  -0.000000
    12  H    0.145781  -0.000000
    13  H    0.165625  -0.000000
 Sum of Mulliken charges =  -0.00000  -0.00000

 Dipole moment (field-independent basis, Debye):
    X=             -1.3404    Y=             -0.2167    Z=              0.0000  Tot=              1.3578
 Quadrupole moment (field-independent basis, Debye-Ang):
   XX=            -35.4091   YY=            -38.4337   ZZ=            -45.9124
   XY=             -4.4119   XZ=              0.0000   YZ=              0.0000

 Normal termination of Gaussian 16 at Sat Sep 30 08:18:40 2023.
