 Gaussian 16, Revision B.01,
 Gaussian 16:  ES64L-G16RevB.01 20-Dec-2017

 --------------------
 # b3lyp/gen opt freq
 --------------------

 ---------------------
 phenol, B3LYP/pcseg-2
 ---------------------
 Symbolic Z-matrix:
 Charge =  0 Multiplicity = 1

 SCF Done:  E(RB3LYP) =  -307.595823017     A.U. after   12 cycles
 SCF Done:  E(RB3LYP) =  -307.595927797     A.U. after   10 cycles
 SCF Done:  E(RB3LYP) =  -307.595930540     A.U. after    7 cycles
 Optimization completed.
    -- Stationary point found.
 Normal termination of Gaussian 16 at Wed Jun 15 10:56:07 2022.

 ------------------------------------------------------------------
 #N Geom=AllCheck Guess=TCheck SCRF=Check GenChk RB3LYP/ChkBas Freq
 ------------------------------------------------------------------

 Structure from the checkpoint file:  "/wrk/irikura/Gau-5164.chk"
 ---------------------
 phenol, B3LYP/pcseg-2
 ---------------------
 Charge =  0 Multiplicity = 1

                         Standard orientation:
 ---------------------------------------------------------------------
 Center     Atomic      Atomic             Coordinates (Angstroms)
 Number     Number       Type             X           Y           Z
 ---------------------------------------------------------------------
      1          6           0        0.000000    0.936554    0.000000
      2          6           0       -1.200370    0.230288    0.000000
      3          6           0       -1.183790   -1.159983    0.000000
      4          6           0        0.021579   -1.850839    0.000000
      5          6           0        1.216103   -1.135819    0.000000
      6          6           0        1.212753    0.251658    0.000000
      7          8           0        0.047913    2.302714    0.000000
      8          1           0       -0.844264    2.660040    0.000000
      9          1           0       -2.142938    0.765396    0.000000
     10          1           0       -2.120416   -1.701187    0.000000
     11          1           0        0.031512   -2.931621    0.000000
     12          1           0        2.161059   -1.662424    0.000000
     13          1           0        2.134100    0.816933    0.000000
 ---------------------------------------------------------------------

 SCF Done:  E(RB3LYP) =  -307.595930540     A.U. after    1 cycles

 The electronic state is 1-A'.
 Alpha  occ. eigenvalues --  -19.15918 -10.24014 -10.18064 -10.17875 -10.17826
 Alpha  occ. eigenvalues --  -10.17241 -10.17050  -1.06876  -0.85788  -0.75561
 Alpha  occ. eigenvalues --   -0.74467  -0.63194  -0.60928  -0.55320  -0.50566
 Alpha  occ. eigenvalues --   -0.47400  -0.44548  -0.43063  -0.41941  -0.39840
 Alpha  occ. eigenvalues --   -0.36869  -0.34777  -0.34692  -0.26346  -0.23435
 Alpha virt. eigenvalues --   -0.01936  -0.00296   0.00459   0.02264   0.04213
 Alpha virt. eigenvalues --    0.05746   0.07537   0.09484   0.12617   0.13591
 Alpha virt. eigenvalues --    0.16793   0.16861   0.17577   0.19454   0.19791

 Mulliken charges:
               1
     1  C    0.359699
     2  C   -0.117315
     3  C   -0.029918
     4  C   -0.040947
     5  C   -0.011464
     6  C   -0.072283
     7  O   -0.375819
     8  H    0.191629
     9  H    0.005862
    10  H    0.020881
    11  H    0.019105
    12  H    0.021759
    13  H    0.028810
 Sum of Mulliken charges =  -0.00000

 Dipole moment (field-independent basis, Debye):
    X=             -1.3142    Y=             -0.0342    Z=              0.0000  Tot=              1.3146
 Quadrupole moment (field-independent basis, Debye-Ang):
   XX=            -35.9817   YY=            -38.2883   ZZ=            -45.2036
   XY=             -4.2926   XZ=              0.0000   YZ=              0.0000

  Exact polarizability:  81.299  -1.398  89.619   0.000   0.000  41.544
 Approx polarizability: 133.691  -1.210 144.452  -0.000  -0.000  63.495

                      1                      2                      3
                     A"                     A"                     A'
 Frequencies --    229.0705               343.1459               407.2227
 Red. masses --      4.3359                 1.1087                 3.9396
 Frc consts  --      0.1341                 0.0769                 0.3849
 IR Inten    --      0.9975               101.8382                 9.7113

                      4                      5                      6
                     A"                     A"                     A'
 Frequencies --    422.2637               515.6994               537.8925
 Red. masses --      2.9704                 2.7210                 7.2817
 Frc consts  --      0.3121                 0.4264                 1.2413
 IR Inten    --      0.4961                14.3050                 2.0208

                      7                      8                      9
                     A'                     A"                     A"
 Frequencies --    635.0703               701.1523               765.9189
 Red. masses --      6.4419                 2.1938                 1.6550
 Frc consts  --      1.5308                 0.6354                 0.5720
 IR Inten    --      0.3699                25.2859                62.8037

                     10                     11                     12
                     A"                     A'                     A"
 Frequencies --    828.7576               831.3868               897.1877
 Red. masses --      1.2540                 5.7714                 1.4535
 Frc consts  --      0.5074                 2.3504                 0.6893
 IR Inten    --      0.0000                21.4035                 6.5341

                     13                     14                     15
                     A"                     A"                     A'
 Frequencies --    973.5927               992.7376              1018.5567
 Red. masses --      1.3393                 1.2713                 6.1240
 Frc consts  --      0.7480                 0.7382                 3.7433
 IR Inten    --      0.0444                 0.1053                 3.1253

                     16                     17                     18
                     A'                     A'                     A'
 Frequencies --   1045.8170              1095.5368              1178.1713
 Red. masses --      2.0763                 1.5605                 1.1837
 Frc consts  --      1.3380                 1.1035                 0.9681
 IR Inten    --      4.3518                13.9469                28.0269

                     19                     20                     21
                     A'                     A'                     A'
 Frequencies --   1192.8923              1193.5018              1282.2414
 Red. masses --      1.1581                 1.2443                 3.6192
 Frc consts  --      0.9710                 1.0443                 3.5060
 IR Inten    --      7.8502               122.2455                87.9259

                     22                     23                     24
                     A'                     A'                     A'
 Frequencies --   1348.2296              1375.9742              1506.0131
 Red. masses --      4.2399                 1.3106                 2.2464
 Frc consts  --      4.5408                 1.4620                 3.0019
 IR Inten    --      7.7310                23.4437                23.1114

                     25                     26                     27
                     A'                     A'                     A'
 Frequencies --   1533.2769              1636.2701              1647.1956
 Red. masses --      2.3190                 5.7294                 5.6263
 Frc consts  --      3.2121                 9.0379                 8.9941
 IR Inten    --     54.6480                46.3030                38.7099

                     28                     29                     30
                     A'                     A'                     A'
 Frequencies --   3154.0721              3173.2940              3181.5583
 Red. masses --      1.0882                 1.0864                 1.0909
 Frc consts  --      6.3785                 6.4453                 6.5059
 IR Inten    --     13.3420                 0.1559                15.2952

                     31                     32                     33
                     A'                     A'                     A'
 Frequencies --   3195.0007              3201.4644              3827.8809
 Red. masses --      1.0929                 1.0967                 1.0660
 Frc consts  --      6.5729                 6.6229                 9.2026
 IR Inten    --     15.2699                 4.9646                60.9421

 - Thermochemistry -
 -------------------
 Temperature   298.150 Kelvin.  Pressure   1.00000 Atm.
 Atom     1 has atomic number  6 and mass  12.00000

 Molecular mass:    94.04186 amu.
 Principal axes and moments of inertia in atomic units:
                           1         2         3
     Eigenvalues --   316.78751 686.319671003.10717
           X           -0.00697   0.99998   0.00000
           Y            0.99998   0.00697   0.00000
           Z           -0.00000   0.00000   1.00000
 This molecule is an asymmetric top.
 Rotational symmetry number  1.
 Rotational temperatures (Kelvin)      0.27341     0.12620     0.08635
 Rotational constants (GHZ):           5.69701     2.62959     1.79915
 Zero-point vibrational energy     274351.8 (Joules/Mol)
                                   65.57166 (Kcal/Mol)
 Warning -- explicit consideration of   6 degrees of freedom as
           vibrations may cause significant error
 Vibrational temperatures:    329.58   493.71   585.90   607.54   741.98
          (Kelvin)            773.91   913.72  1008.80  1101.99  1192.40
                             1196.18  1290.85  1400.78  1428.33  1465.48
                             1504.70  1576.23  1695.13  1716.31  1717.18
                             1844.86  1939.80  1979.72  2166.82  2206.04
                             2354.23  2369.95  4538.01  4565.66  4577.55
                             4596.89  4606.19  5507.47

 Zero-point correction=                           0.104495 (Hartree/Particle)
 Thermal correction to Energy=                    0.110018
 Thermal correction to Enthalpy=                  0.110962
 Thermal correction to Gibbs Free Energy=         0.075508
 Sum of electronic and zero-point Energies=           -307.491435
 Sum of electronic and thermal Energies=              -307.485913
 Sum of electronic and thermal Enthalpies=            -307.484969
 Sum of electronic and thermal Free Energies=         -307.520423

                     E (Thermal)             CV                S
                      KCal/Mol        Cal/Mol-Kelvin    Cal/Mol-Kelvin
 Total                   69.037             21.838             74.619
 Electronic               0.000              0.000              0.000
 Translational            0.889              2.981             39.535
 Rotational               0.889              2.981             26.880
 Vibrational             67.260             15.877              8.203
 Vibration     1          0.652              1.797              1.886
 Vibration     2          0.722              1.589              1.197
 Vibration     3          0.772              1.455              0.936
 Vibration     4          0.785              1.422              0.884
 Vibration     5          0.871              1.215              0.620
 Vibration     6          0.893              1.166              0.570

 Optimization completed.
    -- Stationary point found.
 Normal termination of Gaussian 16 at Wed Jun 15 11:00:24 2022.
