 Gaussian 16, Revision B.01,

 ---------------------------------------
 # b3lyp/gen opt freq CPHF(Grid=OneStep)
 ---------------------------------------

 -----------------------------------
 phenyl hydroperoxide, B3LYP/pcseg-2
 -----------------------------------
 Symbolic Z-matrix:
 Charge =  0 Multiplicity = 1

 SCF Done:  E(RB3LYP) =  -382.751991457     A.U. after   14 cycles
 Optimization completed.
    -- Stationary point found.
 Normal termination of Gaussian 16 at Wed Sep 27 18:05:20 2023.

 ------------------------------------------------------------------
 #N Geom=AllCheck Guess=TCheck SCRF=Check GenChk RB3LYP/ChkBas Freq
 ------------------------------------------------------------------

 Structure from the checkpoint file:  "phooh.chk"
 -----------------------------------
 phenyl hydroperoxide, B3LYP/pcseg-2
 -----------------------------------
 Charge =  0 Multiplicity = 1

 SCF Done:  E(RB3LYP) =  -382.751991457     A.U. after    1 cycles

  Exact polarizability: 102.812   2.115  84.398   0.991  -0.033  45.225
 Approx polarizability: 155.949   2.994 143.032   0.639  -0.411  69.604

                      1                      2                      3
                      A                      A                      A
 Frequencies --     58.8457               163.5361               222.6113
 Red. masses --      6.1227                 1.1347                 4.5098
 Frc consts  --      0.0125                 0.0179                 0.1317
 IR Inten    --      4.6317               124.6242                 8.0855

                      4                      5                      6
                      A                      A                      A
 Frequencies --    261.7096               420.6989               441.6322
 Red. masses --      5.0552                 3.0213                 7.1924
 Frc consts  --      0.2040                 0.3151                 0.8265
 IR Inten    --      0.9453                 0.0370                 3.6767

                      7                      8                      9
                      A                      A                      A
 Frequencies --    511.6983               599.3069               629.7179
 Red. masses --      2.8949                 7.7147                 6.4410
 Frc consts  --      0.4466                 1.6326                 1.5049
 IR Inten    --     10.0600                 1.1045                 0.3042

                     10                     11                     12
                      A                      A                      A
 Frequencies --    706.0008               766.4289               812.0187
 Red. masses --      2.2558                 1.5728                 6.3600
 Frc consts  --      0.6625                 0.5443                 2.4708
 IR Inten    --     23.7811                67.7751                23.1980

                     13                     14                     15
                      A                      A                      A
 Frequencies --    839.0726               912.2134               963.6225
 Red. masses --      1.2478                 1.4379                11.9966
 Frc consts  --      0.5176                 0.7050                 6.5633
 IR Inten    --      0.0357                 7.5994                 7.5008

                     16                     17                     18
                      A                      A                      A
 Frequencies --    984.5099               999.0072              1016.2815
 Red. masses --      1.3437                 1.2738                 5.8852
 Frc consts  --      0.7674                 0.7490                 3.5813
 IR Inten    --      0.0110                 0.3003                 0.4211

                     19                     20                     21
                      A                      A                      A
 Frequencies --   1046.5288              1104.2368              1179.8050
 Red. masses --      2.0403                 1.4886                 1.2508
 Frc consts  --      1.3166                 1.0695                 1.0258
 IR Inten    --      4.0712                 6.4891                15.5443

                     22                     23                     24
                      A                      A                      A
 Frequencies --   1183.9415              1225.1429              1332.9217
 Red. masses --      1.2171                 2.6304                 3.0559
 Frc consts  --      1.0052                 2.3262                 3.1989
 IR Inten    --     13.7437                48.2921                 0.4682

                     25                     26                     27
                      A                      A                      A
 Frequencies --   1353.7771              1399.3397              1493.1222
 Red. masses --      1.6894                 1.2080                 2.2423
 Frc consts  --      1.8242                 1.3937                 2.9453
 IR Inten    --      2.6315                75.2685                 4.4217

                     28                     29                     30
                      A                      A                      A
 Frequencies --   1520.0854              1633.9001              1635.7662
 Red. masses --      2.1812                 5.7254                 6.0147
 Frc consts  --      2.9694                 9.0054                 9.4821
 IR Inten    --     75.5198                63.4863                 7.0760

                     31                     32                     33
                      A                      A                      A
 Frequencies --   3172.3179              3179.7530              3193.4810
 Red. masses --      1.0856                 1.0892                 1.0921
 Frc consts  --      6.4366                 6.4885                 6.5623
 IR Inten    --      0.5799                10.5324                13.4909

                     34                     35                     36
                      A                      A                      A
 Frequencies --   3200.5677              3236.6652              3766.5198
 Red. masses --      1.0966                 1.0915                 1.0685
 Frc consts  --      6.6184                 6.7368                 8.9311
 IR Inten    --      7.6620                 0.2059                71.6291

 - Thermochemistry -
 -------------------
 Temperature   298.150 Kelvin.  Pressure   1.00000 Atm.
 Atom     1 has atomic number  6 and mass  12.00000

 Molecular mass:   110.03678 amu.
 Principal axes and moments of inertia in atomic units:
                           1         2         3
     Eigenvalues --   354.013831155.373691504.96770
           X            0.99996   0.00611   0.00667
           Y           -0.00612   0.99998   0.00151
           Z           -0.00666  -0.00155   0.99998
 This molecule is an asymmetric top.
 Rotational symmetry number  1.
 Rotational temperatures (Kelvin)      0.24466     0.07497     0.05755
 Rotational constants (GHZ):           5.09794     1.56204     1.19919
 Zero-point vibrational energy     282120.0 (Joules/Mol)
                                   67.42830 (Kcal/Mol)
 Warning -- explicit consideration of   8 degrees of freedom as
           vibrations may cause significant error
 Vibrational temperatures:     84.67   235.29   320.29   376.54   605.29
          (Kelvin)            635.41   736.22   862.27   906.02  1015.78
                             1102.72  1168.31  1207.24  1312.47  1386.44
                             1416.49  1437.35  1462.20  1505.72  1588.75
                             1697.48  1703.43  1762.71  1917.78  1947.78
                             2013.34  2148.27  2187.06  2350.82  2353.50
                             4564.26  4574.96  4594.71  4604.90  4656.84
                             5419.18

 Zero-point correction=                           0.107454 (Hartree/Particle)
 Thermal correction to Energy=                    0.114495
 Thermal correction to Enthalpy=                  0.115439
 Thermal correction to Gibbs Free Energy=         0.075766
 Sum of electronic and zero-point Energies=           -382.644538
 Sum of electronic and thermal Energies=              -382.637497
 Sum of electronic and thermal Enthalpies=            -382.636553
 Sum of electronic and thermal Free Energies=         -382.676225

                     E (Thermal)             CV                S
                      KCal/Mol        Cal/Mol-Kelvin    Cal/Mol-Kelvin
 Total                   71.846             26.014             83.498
 Electronic               0.000              0.000              0.000
 Translational            0.889              2.981             40.003
 Rotational               0.889              2.981             27.911
 Vibrational             70.069             20.053             15.583
 Vibration     1          0.596              1.974              4.496
 Vibration     2          0.623              1.887              2.508
 Vibration     3          0.648              1.807              1.938
 Vibration     4          0.669              1.743              1.650
 Vibration     5          0.783              1.425              0.890
 Vibration     6          0.801              1.379              0.821
 Vibration     7          0.867              1.224              0.630
 Vibration     8          0.957              1.033              0.451

                           ! Non-Optimized Parameters !
 Normal termination of Gaussian 16 at Wed Sep 27 18:29:04 2023.
 Gaussian 16:  ES64L-G16RevB.01 20-Dec-2017

 ---------------------------------
 # rohf/gen geom=check guess=check
 ---------------------------------

 --------------------------------------
 phenyl hydroperoxide, ROHF/cc-pVTZ-F12
 --------------------------------------
 Structure from the checkpoint file:  "phooh.chk"
 Charge =  0 Multiplicity = 1

                         Standard orientation:
 ---------------------------------------------------------------------
 Center     Atomic      Atomic             Coordinates (Angstroms)
 Number     Number       Type             X           Y           Z
 ---------------------------------------------------------------------
      1          6           0        0.459989   -0.264228   -0.011652
      2          6           0        0.057591    1.063831   -0.013165
      3          6           0       -1.305634    1.349700    0.002067
      4          6           0       -2.250466    0.333260    0.015523
      5          6           0       -1.824853   -0.992863    0.011879
      6          6           0       -0.473284   -1.300285   -0.003607
      7          8           0        1.771719   -0.688340   -0.027747
      8          8           0        2.683697    0.429070   -0.065854
      9          1           0        0.790925    1.852793   -0.030482
     10          1           0       -1.623344    2.383821    0.000359
     11          1           0       -3.305668    0.567461    0.026305
     12          1           0       -2.549157   -1.796226    0.019977
     13          1           0       -0.130006   -2.325321   -0.009652
     14          1           0        3.193853    0.255145    0.736032
 ---------------------------------------------------------------------

 SCF Done:  E(ROHF) =  -380.472936467     A.U. after   13 cycles

 The electronic state is 1-A.
 Alpha  occ. eigenvalues --  -20.64785 -20.64287 -11.30553 -11.24118 -11.24061
 Alpha  occ. eigenvalues --  -11.23376 -11.23191 -11.22846  -1.50241  -1.26304
 Alpha  occ. eigenvalues --   -1.14676  -1.02346  -1.00191  -0.84315  -0.82193
 Alpha  occ. eigenvalues --   -0.73264  -0.72881  -0.67161  -0.66602  -0.62343
 Alpha  occ. eigenvalues --   -0.60461  -0.59102  -0.55562  -0.52480  -0.51634
 Alpha  occ. eigenvalues --   -0.49462  -0.48136  -0.34495  -0.32222
 Alpha virt. eigenvalues --    0.04873   0.05240   0.05482   0.06776   0.07067
 Alpha virt. eigenvalues --    0.08573   0.09168   0.09963   0.10420   0.10681
 Alpha virt. eigenvalues --    0.10832   0.11314   0.12362   0.12539   0.12666

 Mulliken charges and spin densities:
               1          2
     1  C    0.307721   0.000000
     2  C   -0.090799   0.000000
     3  C   -0.157908   0.000000
     4  C   -0.177003   0.000000
     5  C   -0.150600   0.000000
     6  C   -0.146751   0.000000
     7  O   -0.356343   0.000000
     8  O   -0.441474   0.000000
     9  H    0.181395   0.000000
    10  H    0.143194   0.000000
    11  H    0.141687   0.000000
    12  H    0.145160   0.000000
    13  H    0.161977   0.000000
    14  H    0.439745   0.000000
 Sum of Mulliken charges =  -0.00000   0.00000

 Dipole moment (field-independent basis, Debye):
    X=             -0.0420    Y=              0.2852    Z=              1.3688  Tot=              1.3988
 Quadrupole moment (field-independent basis, Debye-Ang):
   XX=            -39.9050   YY=            -42.7268   ZZ=            -49.6926
   XY=              1.2921   XZ=              4.9811   YZ=              0.2912

 Normal termination of Gaussian 16 at Wed Sep 27 18:43:16 2023.
