 Gaussian 16, Revision B.01,

 ---------------------------------------
 # b3lyp/gen opt freq CPHF(Grid=OneStep)
 ---------------------------------------

 ----------------------------
 phenylperoxyl, B3LYP/pcseg-2
 ----------------------------
 Symbolic Z-matrix:
 Charge =  0 Multiplicity = 2

 SCF Done:  E(UB3LYP) =  -382.110552588     A.U. after   19 cycles
 Optimization completed.
    -- Stationary point found.
 Normal termination of Gaussian 16 at Thu Sep 28 22:43:17 2023.

 ------------------------------------------------------------------
 #N Geom=AllCheck Guess=TCheck SCRF=Check GenChk UB3LYP/ChkBas Freq
 ------------------------------------------------------------------

 Structure from the checkpoint file:  "PhOO.chk"
 ----------------------------
 phenylperoxyl, B3LYP/pcseg-2
 ----------------------------
 Charge =  0 Multiplicity = 2

 SCF Done:  E(UB3LYP) =  -382.110552588     A.U. after    1 cycles

  Exact polarizability:  92.308 -16.079 107.091   0.000   0.000  41.954
 Approx polarizability: 156.577 -23.716 169.335  -0.000  -0.000  64.468

                      1                      2                      3
                     A"                     A"                     A'
 Frequencies --     86.3112               234.8046               265.5143
 Red. masses --      8.7504                 5.5354                 6.7186
 Frc consts  --      0.0384                 0.1798                 0.2791
 IR Inten    --      0.5457                 0.0097                 2.9251

                      4                      5                      6
                     A"                     A'                     A"
 Frequencies --    419.9199               448.3198               495.6378
 Red. masses --      2.9670                 8.2334                 3.0502
 Frc consts  --      0.3082                 0.9750                 0.4415
 IR Inten    --      0.0001                 1.6210                 7.3321

                      7                      8                      9
                     A'                     A'                     A"
 Frequencies --    621.2604               628.1491               696.9375
 Red. masses --      7.3316                 7.0566                 2.3120
 Frc consts  --      1.6672                 1.6405                 0.6616
 IR Inten    --      5.6910                 2.7590                23.1003

                     10                     11                     12
                     A"                     A'                     A"
 Frequencies --    773.6321               807.8578               847.3795
 Red. masses --      1.5176                 6.9108                 1.2480
 Frc consts  --      0.5352                 2.6574                 0.5280
 IR Inten    --     66.9375                 1.0409                 0.0014

                     13                     14                     15
                     A"                     A"                     A"
 Frequencies --    936.2450               995.3471              1010.9960
 Red. masses --      1.3991                 1.3516                 1.2929
 Frc consts  --      0.7226                 0.7889                 0.7786
 IR Inten    --      6.2787                 0.0165                 0.1437

                     16                     17                     18
                     A'                     A'                     A'
 Frequencies --   1020.0561              1039.2970              1097.5266
 Red. masses --      6.1471                 1.9918                 1.5064
 Frc consts  --      3.7685                 1.2676                 1.0691
 IR Inten    --      0.1983                 4.3810                 4.9346

                     19                     20                     21
                     A'                     A'                     A'
 Frequencies --   1127.0014              1174.3227              1184.6583
 Red. masses --      3.0367                 4.2516                 1.2881
 Frc consts  --      2.2725                 3.4544                 1.0651
 IR Inten    --      0.5174                 5.9709                 0.5480

                     22                     23                     24
                     A'                     A'                     A'
 Frequencies --   1202.3922              1343.7833              1348.8297
 Red. masses --      1.4416                 3.8705                 1.6178
 Frc consts  --      1.2280                 4.1179                 1.7342
 IR Inten    --      0.4014                 2.0962                 0.1090

                     25                     26                     27
                     A'                     A'                     A'
 Frequencies --   1497.1575              1511.8186              1620.4053
 Red. masses --      2.2615                 2.1105                 5.3739
 Frc consts  --      2.9867                 2.8421                 8.3136
 IR Inten    --      4.8000                15.2689                 0.8567

                     28                     29                     30
                     A'                     A'                     A'
 Frequencies --   1640.1858              3178.2393              3187.5426
 Red. masses --      6.4002                 1.0861                 1.0895
 Frc consts  --     10.1444                 6.4641                 6.5220
 IR Inten    --      3.0466                 0.0503                 7.9091

                     31                     32                     33
                     A'                     A'                     A'
 Frequencies --   3197.5735              3205.3748              3231.1694
 Red. masses --      1.0928                 1.0964                 1.0921
 Frc consts  --      6.5834                 6.6369                 6.7180
 IR Inten    --      8.8905                 5.0659                 2.3158

 - Thermochemistry -
 -------------------
 Temperature   298.150 Kelvin.  Pressure   1.00000 Atm.
 Atom     1 has atomic number  6 and mass  12.00000

 Molecular mass:   109.02895 amu.
 Principal axes and moments of inertia in atomic units:
                           1         2         3
     Eigenvalues --   345.665331114.040601459.70594
           X           -0.40782   0.91306   0.00000
           Y            0.91306   0.40782   0.00000
           Z           -0.00000   0.00000   1.00000
 This molecule is an asymmetric top.
 Rotational symmetry number  1.
 Rotational temperatures (Kelvin)      0.25057     0.07775     0.05934
 Rotational constants (GHZ):           5.22107     1.62000     1.23637
 Zero-point vibrational energy     251668.3 (Joules/Mol)
                                   60.15016 (Kcal/Mol)
 Warning -- explicit consideration of   6 degrees of freedom as
           vibrations may cause significant error
 Vibrational temperatures:    124.18   337.83   382.02   604.17   645.03
          (Kelvin)            713.11   893.86   903.77  1002.74  1113.08
                             1162.33  1219.19  1347.05  1432.08  1454.60
                             1467.63  1495.32  1579.10  1621.50  1689.59
                             1704.46  1729.97  1933.40  1940.67  2154.08
                             2175.17  2331.40  2359.86  4572.78  4586.16
                             4600.60  4611.82  4648.93

 Zero-point correction=                           0.095855 (Hartree/Particle)
 Thermal correction to Energy=                    0.102161
 Thermal correction to Enthalpy=                  0.103106
 Thermal correction to Gibbs Free Energy=         0.064487
 Sum of electronic and zero-point Energies=           -382.014697
 Sum of electronic and thermal Energies=              -382.008391
 Sum of electronic and thermal Enthalpies=            -382.007447
 Sum of electronic and thermal Free Energies=         -382.046066

                     E (Thermal)             CV                S
                      KCal/Mol        Cal/Mol-Kelvin    Cal/Mol-Kelvin
 Total                   64.107             23.768             81.280
 Electronic               0.000              0.000              1.377
 Translational            0.889              2.981             39.976
 Rotational               0.889              2.981             27.821
 Vibrational             62.330             17.806             12.105
 Vibration     1          0.601              1.959              3.742
 Vibration     2          0.655              1.788              1.842
 Vibration     3          0.671              1.736              1.625
 Vibration     4          0.783              1.427              0.892
 Vibration     5          0.807              1.365              0.801
 Vibration     6          0.851              1.260              0.669

 Optimization completed.
    -- Stationary point found.
 Normal termination of Gaussian 16 at Thu Sep 28 23:14:16 2023.
 Gaussian 16:  ES64L-G16RevB.01 20-Dec-2017

 ---------------------------------
 # rohf/gen geom=check guess=check
 ---------------------------------

 -------------------------------
 phenylperoxyl, ROHF/cc-pVTZ-F12
 -------------------------------
 Structure from the checkpoint file:  "PhOO.chk"
 Charge =  0 Multiplicity = 2

                         Standard orientation:
 ---------------------------------------------------------------------
 Center     Atomic      Atomic             Coordinates (Angstroms)
 Number     Number       Type             X           Y           Z
 ---------------------------------------------------------------------
      1          6           0        0.000000    0.557138    0.000000
      2          6           0       -1.029345   -0.372195    0.000000
      3          6           0       -0.693281   -1.719388    0.000000
      4          6           0        0.640408   -2.120117    0.000000
      5          6           0        1.653447   -1.166109    0.000000
      6          6           0        1.338263    0.185508    0.000000
      7          8           0       -0.218199    1.937413    0.000000
      8          8           0       -1.482423    2.313475    0.000000
      9          1           0       -2.054429   -0.037771    0.000000
     10          1           0       -1.479831   -2.461460    0.000000
     11          1           0        0.888375   -3.172389    0.000000
     12          1           0        2.690103   -1.472991    0.000000
     13          1           0        2.103805    0.948492    0.000000
 ---------------------------------------------------------------------

 SCF Done:  E(ROHF) =  -379.865316646     A.U. after   20 cycles

 The electronic state is 2-A".
 Alpha  occ. eigenvalues --  -20.67173 -20.66850 -11.31371 -11.25040 -11.25033
 Alpha  occ. eigenvalues --  -11.24561 -11.24460 -11.24027  -1.55038  -1.20677
 Alpha  occ. eigenvalues --   -1.14177  -1.03528  -1.00533  -0.85288  -0.83213
 Alpha  occ. eigenvalues --   -0.75006  -0.69340  -0.68541  -0.65166  -0.63242
 Alpha  occ. eigenvalues --   -0.61633  -0.60373  -0.53480  -0.51620  -0.51049
 Alpha  occ. eigenvalues --   -0.49179  -0.35508  -0.34379  -0.14624
 Alpha virt. eigenvalues --    0.04481   0.04984   0.05709   0.06961   0.07435
 Alpha virt. eigenvalues --    0.08138   0.09294   0.09410   0.09939   0.10358
 Alpha virt. eigenvalues --    0.10978   0.11204   0.11971   0.12294   0.12421

 Mulliken charges and spin densities:
               1          2
     1  C    0.275972   0.003511
     2  C   -0.085347   0.004738
     3  C   -0.154271   0.000317
     4  C   -0.167091   0.002347
     5  C   -0.142308   0.000323
     6  C   -0.137146   0.004242
     7  O   -0.292545   0.093878
     8  O   -0.085504   0.890359
     9  H    0.177463   0.000161
    10  H    0.147622   0.000002
    11  H    0.144287   0.000094
    12  H    0.149086   0.000005
    13  H    0.169783   0.000025
 Sum of Mulliken charges =  -0.00000   1.00000

 Dipole moment (field-independent basis, Debye):
    X=              0.5426    Y=             -1.9094    Z=              0.0000  Tot=              1.9850
 Quadrupole moment (field-independent basis, Debye-Ang):
   XX=            -40.8765   YY=            -46.4793   ZZ=            -49.1370
   XY=              1.3782   XZ=              0.0000   YZ=              0.0000

 Normal termination of Gaussian 16 at Thu Sep 28 23:33:57 2023.
