 Gaussian 16, Revision B.01,
 Gaussian 16:  ES64L-G16RevB.01 20-Dec-2017

 --------------------
 # b3lyp/gen opt freq
 --------------------

 ----------------------------
 phenylperoxyl, B3LYP/pcseg-2
 ----------------------------
 Symbolic Z-matrix:
 Charge =  0 Multiplicity = 2

 SCF Done:  E(UB3LYP) =  -382.110459455     A.U. after   19 cycles
 SCF Done:  E(UB3LYP) =  -382.110544403     A.U. after   13 cycles
 SCF Done:  E(UB3LYP) =  -382.110551725     A.U. after   11 cycles
 SCF Done:  E(UB3LYP) =  -382.110552588     A.U. after    8 cycles
 Optimization completed.
    -- Stationary point found.
 Normal termination of Gaussian 16 at Thu Jun 16 08:18:58 2022.

 ------------------------------------------------------------------
 #N Geom=AllCheck Guess=TCheck SCRF=Check GenChk UB3LYP/ChkBas Freq
 ------------------------------------------------------------------

 Structure from the checkpoint file:  "/wrk/irikura/Gau-16336.chk"
 ----------------------------
 phenylperoxyl, B3LYP/pcseg-2
 ----------------------------
 Charge =  0 Multiplicity = 2

                         Standard orientation:
 ---------------------------------------------------------------------
 Center     Atomic      Atomic             Coordinates (Angstroms)
 Number     Number       Type             X           Y           Z
 ---------------------------------------------------------------------
      1          6           0        0.000000    0.557138    0.000000
      2          6           0       -1.029345   -0.372195    0.000000
      3          6           0       -0.693281   -1.719388    0.000000
      4          6           0        0.640408   -2.120117    0.000000
      5          6           0        1.653447   -1.166109    0.000000
      6          6           0        1.338263    0.185508    0.000000
      7          8           0       -0.218199    1.937413    0.000000
      8          8           0       -1.482423    2.313475    0.000000
      9          1           0       -2.054429   -0.037771    0.000000
     10          1           0       -1.479831   -2.461460    0.000000
     11          1           0        0.888375   -3.172389    0.000000
     12          1           0        2.690103   -1.472991    0.000000
     13          1           0        2.103805    0.948492    0.000000
 ---------------------------------------------------------------------

 SCF Done:  E(UB3LYP) =  -382.110552588     A.U. after    1 cycles

 The electronic state is 2-A".
 Alpha  occ. eigenvalues --  -19.26409 -19.19981 -10.25529 -10.20167 -10.19902
 Alpha  occ. eigenvalues --  -10.19895 -10.19755 -10.19622  -1.21026  -0.92249
 Alpha  occ. eigenvalues --   -0.86562  -0.77681  -0.75296  -0.63986  -0.62241
 Alpha  occ. eigenvalues --   -0.56750  -0.51964  -0.51668  -0.51024  -0.46743
 Alpha  occ. eigenvalues --   -0.45473  -0.44625  -0.39811  -0.39135  -0.37345
 Alpha  occ. eigenvalues --   -0.32482  -0.29627  -0.28460  -0.25668
 Alpha virt. eigenvalues --   -0.03846  -0.02577   0.00950   0.03248   0.04401
 Alpha virt. eigenvalues --    0.05663   0.07262   0.08584   0.11159   0.11956
 Alpha virt. eigenvalues --    0.15210   0.15309   0.16503   0.16927   0.18660

  Beta  occ. eigenvalues --  -19.25452 -19.18120 -10.25633 -10.20068 -10.19947
  Beta  occ. eigenvalues --  -10.19933 -10.19671 -10.19519  -1.18642  -0.90562
  Beta  occ. eigenvalues --   -0.85230  -0.77587  -0.74522  -0.63893  -0.61644
  Beta  occ. eigenvalues --   -0.56115  -0.51032  -0.50632  -0.46683  -0.46552
  Beta  occ. eigenvalues --   -0.45252  -0.44135  -0.39034  -0.38293  -0.37273
  Beta  occ. eigenvalues --   -0.28236  -0.28024  -0.27543
  Beta virt. eigenvalues --   -0.13507  -0.03577  -0.01780   0.00977   0.03255
  Beta virt. eigenvalues --    0.04465   0.06066   0.07352   0.09072   0.11948
  Beta virt. eigenvalues --    0.12162   0.15364   0.15369   0.16561   0.17049

 Mulliken charges and spin densities:
               1          2
     1  C    0.287258  -0.040413
     2  C   -0.046453   0.063166
     3  C   -0.015961  -0.030698
     4  C   -0.019815   0.075255
     5  C   -0.020292  -0.038311
     6  C   -0.062938   0.068812
     7  O   -0.088181   0.258445
     8  O   -0.218295   0.653002
     9  H    0.053318  -0.005056
    10  H    0.032031   0.000970
    11  H    0.029544  -0.003382
    12  H    0.031506   0.001247
    13  H    0.038279  -0.003037
 Sum of Mulliken charges =   0.00000   1.00000

 Dipole moment (field-independent basis, Debye):
    X=              1.4240    Y=             -2.8901    Z=              0.0000  Tot=              3.2219
 Quadrupole moment (field-independent basis, Debye-Ang):
   XX=            -42.1584   YY=            -48.0820   ZZ=            -48.4192
   XY=              3.4273   XZ=              0.0000   YZ=              0.0000

  Exact polarizability:  92.308 -16.079 107.091   0.000  -0.000  41.955
 Approx polarizability: 156.577 -23.716 169.335  -0.000  -0.000  64.468

                      1                      2                      3
                     A"                     A"                     A'
 Frequencies --     86.3194               234.8042               265.5151
 Red. masses --      8.7502                 5.5355                 6.7185
 Frc consts  --      0.0384                 0.1798                 0.2791
 IR Inten    --      0.5457                 0.0097                 2.9250

                      4                      5                      6
                     A"                     A'                     A"
 Frequencies --    419.9182               448.3198               495.6349
 Red. masses --      2.9669                 8.2334                 3.0501
 Frc consts  --      0.3082                 0.9750                 0.4415
 IR Inten    --      0.0001                 1.6209                 7.3328

                      7                      8                      9
                     A'                     A'                     A"
 Frequencies --    621.2620               628.1487               696.9351
 Red. masses --      7.3313                 7.0568                 2.3120
 Frc consts  --      1.6672                 1.6405                 0.6616
 IR Inten    --      5.6895                 2.7599                23.1023

                     10                     11                     12
                     A"                     A'                     A"
 Frequencies --    773.6290               807.8556               847.3755
 Red. masses --      1.5176                 6.9109                 1.2480
 Frc consts  --      0.5352                 2.6574                 0.5280
 IR Inten    --     66.9380                 1.0412                 0.0014

                     13                     14                     15
                     A"                     A"                     A"
 Frequencies --    936.2424               995.3458              1010.9956
 Red. masses --      1.3991                 1.3516                 1.2929
 Frc consts  --      0.7226                 0.7889                 0.7786
 IR Inten    --      6.2793                 0.0164                 0.1437

                     16                     17                     18
                     A'                     A'                     A'
 Frequencies --   1020.0535              1039.2925              1097.5235
 Red. masses --      6.1471                 1.9918                 1.5063
 Frc consts  --      3.7685                 1.2675                 1.0691
 IR Inten    --      0.1983                 4.3815                 4.9360

                     19                     20                     21
                     A'                     A'                     A'
 Frequencies --   1126.9997              1174.3219              1184.6561
 Red. masses --      3.0365                 4.2513                 1.2882
 Frc consts  --      2.2724                 3.4542                 1.0651
 IR Inten    --      0.5174                 5.9709                 0.5480

                     22                     23                     24
                     A'                     A'                     A'
 Frequencies --   1202.3881              1343.7779              1348.8251
 Red. masses --      1.4416                 3.8674                 1.6184
 Frc consts  --      1.2280                 4.1145                 1.7348
 IR Inten    --      0.4019                 2.0952                 0.1095

                     25                     26                     27
                     A'                     A'                     A'
 Frequencies --   1497.1570              1511.8151              1620.4060
 Red. masses --      2.2615                 2.1105                 5.3740
 Frc consts  --      2.9867                 2.8421                 8.3137
 IR Inten    --      4.8007                15.2719                 0.8567

                     28                     29                     30
                     A'                     A'                     A'
 Frequencies --   1640.1846              3178.2419              3187.5450
 Red. masses --      6.4000                 1.0861                 1.0895
 Frc consts  --     10.1442                 6.4641                 6.5220
 IR Inten    --      3.0463                 0.0510                 7.9061

                     31                     32                     33
                     A'                     A'                     A'
 Frequencies --   3197.5713              3205.3758              3231.1526
 Red. masses --      1.0928                 1.0964                 1.0921
 Frc consts  --      6.5834                 6.6369                 6.7180
 IR Inten    --      8.8899                 5.0693                 2.3138

 - Thermochemistry -
 -------------------
 Temperature   298.150 Kelvin.  Pressure   1.00000 Atm.
 Atom     1 has atomic number  6 and mass  12.00000

 Molecular mass:   109.02895 amu.
 Principal axes and moments of inertia in atomic units:
                           1         2         3
     Eigenvalues --   345.665401114.040881459.70627
           X           -0.40782   0.91306   0.00000
           Y            0.91306   0.40782   0.00000
           Z           -0.00000   0.00000   1.00000
 This molecule is an asymmetric top.
 Rotational symmetry number  1.
 Rotational temperatures (Kelvin)      0.25057     0.07775     0.05934
 Rotational constants (GHZ):           5.22106     1.62000     1.23637
 Zero-point vibrational energy     251667.9 (Joules/Mol)
                                   60.15007 (Kcal/Mol)
 Warning -- explicit consideration of   6 degrees of freedom as
           vibrations may cause significant error
 Vibrational temperatures:    124.19   337.83   382.02   604.17   645.03
          (Kelvin)            713.11   893.86   903.77  1002.73  1113.08
                             1162.32  1219.18  1347.04  1432.08  1454.60
                             1467.63  1495.31  1579.09  1621.50  1689.59
                             1704.46  1729.97  1933.40  1940.66  2154.08
                             2175.16  2331.40  2359.86  4572.78  4586.17
                             4600.59  4611.82  4648.91

 Zero-point correction=                           0.095855 (Hartree/Particle)
 Thermal correction to Energy=                    0.102161
 Thermal correction to Enthalpy=                  0.103105
 Thermal correction to Gibbs Free Energy=         0.064487
 Sum of electronic and zero-point Energies=           -382.014697
 Sum of electronic and thermal Energies=              -382.008391
 Sum of electronic and thermal Enthalpies=            -382.007447
 Sum of electronic and thermal Free Energies=         -382.046066

                     E (Thermal)             CV                S
                      KCal/Mol        Cal/Mol-Kelvin    Cal/Mol-Kelvin
 Total                   64.107             23.768             81.279
 Electronic               0.000              0.000              1.377
 Translational            0.889              2.981             39.976
 Rotational               0.889              2.981             27.821
 Vibrational             62.330             17.806             12.105
 Vibration     1          0.601              1.959              3.742
 Vibration     2          0.655              1.788              1.842
 Vibration     3          0.671              1.736              1.625
 Vibration     4          0.783              1.427              0.892
 Vibration     5          0.807              1.365              0.801
 Vibration     6          0.851              1.260              0.669

 Optimization completed.
    -- Stationary point found.
 Normal termination of Gaussian 16 at Thu Jun 16 08:26:40 2022.
