 Gaussian 16, Revision B.01,
 Gaussian 16:  ES64L-G16RevB.01 20-Dec-2017

 --------------------
 # b3lyp/gen opt freq
 --------------------

 -----------------------------------
 phenyl hydroperoxide, B3LYP/pcseg-2
 -----------------------------------
 Symbolic Z-matrix:
 Charge =  0 Multiplicity = 1

 SCF Done:  E(RB3LYP) =  -382.751766051     A.U. after   14 cycles
 SCF Done:  E(RB3LYP) =  -382.751922419     A.U. after   12 cycles
 SCF Done:  E(RB3LYP) =  -382.751976363     A.U. after   10 cycles
 SCF Done:  E(RB3LYP) =  -382.751989150     A.U. after   10 cycles
 SCF Done:  E(RB3LYP) =  -382.751991341     A.U. after   10 cycles
 SCF Done:  E(RB3LYP) =  -382.751991457     A.U. after    7 cycles
 Optimization completed.
    -- Stationary point found.
 Normal termination of Gaussian 16 at Fri Jun 17 20:38:45 2022.

 ------------------------------------------------------------------
 #N Geom=AllCheck Guess=TCheck SCRF=Check GenChk RB3LYP/ChkBas Freq
 ------------------------------------------------------------------

 Structure from the checkpoint file:  "/wrk/irikura/Gau-27741.chk"
 -----------------------------------
 phenyl hydroperoxide, B3LYP/pcseg-2
 -----------------------------------
 Charge =  0 Multiplicity = 1

                         Standard orientation:
 ---------------------------------------------------------------------
 Center     Atomic      Atomic             Coordinates (Angstroms)
 Number     Number       Type             X           Y           Z
 ---------------------------------------------------------------------
      1          6           0        0.459989   -0.264228   -0.011652
      2          6           0        0.057591    1.063831   -0.013165
      3          6           0       -1.305634    1.349700    0.002067
      4          6           0       -2.250466    0.333260    0.015523
      5          6           0       -1.824853   -0.992863    0.011879
      6          6           0       -0.473284   -1.300285   -0.003607
      7          8           0        1.771719   -0.688340   -0.027747
      8          8           0        2.683697    0.429070   -0.065854
      9          1           0        0.790925    1.852793   -0.030482
     10          1           0       -1.623344    2.383821    0.000359
     11          1           0       -3.305668    0.567461    0.026305
     12          1           0       -2.549157   -1.796226    0.019977
     13          1           0       -0.130006   -2.325321   -0.009652
     14          1           0        3.193853    0.255145    0.736032
 ---------------------------------------------------------------------

 SCF Done:  E(RB3LYP) =  -382.751991457     A.U. after    1 cycles

 The electronic state is 1-A.
 Alpha  occ. eigenvalues --  -19.21484 -19.20331 -10.24258 -10.18183 -10.18092
 Alpha  occ. eigenvalues --  -10.17951 -10.17689 -10.17263  -1.15391  -0.95401
 Alpha  occ. eigenvalues --   -0.85583  -0.75714  -0.74042  -0.62718  -0.60930
 Alpha  occ. eigenvalues --   -0.55615  -0.53150  -0.49136  -0.48027  -0.45056
 Alpha  occ. eigenvalues --   -0.43840  -0.42823  -0.39543  -0.37230  -0.35960
 Alpha  occ. eigenvalues --   -0.34639  -0.31787  -0.26497  -0.23647
 Alpha virt. eigenvalues --   -0.02050  -0.01733  -0.00574   0.02011   0.02198
 Alpha virt. eigenvalues --    0.04167   0.05660   0.08032   0.09246   0.11854
 Alpha virt. eigenvalues --    0.13580   0.16615   0.17028   0.18156   0.18494

 Mulliken charges:
               1
     1  C    0.327392
     2  C   -0.056976
     3  C   -0.016814
     4  C   -0.044873
     5  C   -0.013829
     6  C   -0.099345
     7  O   -0.234867
     8  O   -0.214898
     9  H    0.035514
    10  H    0.023230
    11  H    0.019490
    12  H    0.024327
    13  H    0.025924
    14  H    0.225725
 Sum of Mulliken charges =  -0.00000

 Dipole moment (field-independent basis, Debye):
    X=              0.0804    Y=              0.2248    Z=              1.3252  Tot=              1.3465
 Quadrupole moment (field-independent basis, Debye-Ang):
   XX=            -40.2990   YY=            -43.1793   ZZ=            -49.1665
   XY=              1.1761   XZ=              4.8170   YZ=              0.2802

  Exact polarizability: 102.813   2.115  84.398   0.991  -0.033  45.225
 Approx polarizability: 155.949   2.994 143.032   0.639  -0.411  69.604

                      1                      2                      3
                      A                      A                      A
 Frequencies --     58.8558               163.4480               222.6100
 Red. masses --      6.1219                 1.1346                 4.5112
 Frc consts  --      0.0125                 0.0179                 0.1317
 IR Inten    --      4.6332               124.6321                 8.0674

                      4                      5                      6
                      A                      A                      A
 Frequencies --    261.7062               420.6973               441.6324
 Red. masses --      5.0561                 3.0213                 7.1924
 Frc consts  --      0.2040                 0.3151                 0.8265
 IR Inten    --      0.9439                 0.0371                 3.6767

                      7                      8                      9
                      A                      A                      A
 Frequencies --    511.6957               599.3048               629.7182
 Red. masses --      2.8949                 7.7146                 6.4410
 Frc consts  --      0.4466                 1.6325                 1.5049
 IR Inten    --     10.0616                 1.1045                 0.3043

                     10                     11                     12
                      A                      A                      A
 Frequencies --    705.9962               766.4268               812.0166
 Red. masses --      2.2559                 1.5728                 6.3601
 Frc consts  --      0.6625                 0.5443                 2.4708
 IR Inten    --     23.7824                67.7780                23.1973

                     13                     14                     15
                      A                      A                      A
 Frequencies --    839.0686               912.2115               963.6174
 Red. masses --      1.2478                 1.4379                11.9963
 Frc consts  --      0.5176                 0.7050                 6.5631
 IR Inten    --      0.0357                 7.5999                 7.4992

                     16                     17                     18
                      A                      A                      A
 Frequencies --    984.5090               999.0070              1016.2800
 Red. masses --      1.3437                 1.2738                 5.8852
 Frc consts  --      0.7674                 0.7490                 3.5813
 IR Inten    --      0.0111                 0.3003                 0.4212

                     19                     20                     21
                      A                      A                      A
 Frequencies --   1046.5245              1104.2335              1179.8010
 Red. masses --      2.0403                 1.4886                 1.2510
 Frc consts  --      1.3166                 1.0694                 1.0259
 IR Inten    --      4.0723                 6.4908                15.5600

                     22                     23                     24
                      A                      A                      A
 Frequencies --   1183.9354              1225.1420              1332.9162
 Red. masses --      1.2170                 2.6304                 3.0553
 Frc consts  --      1.0050                 2.3262                 3.1982
 IR Inten    --     13.7203                48.2970                 0.4676

                     25                     26                     27
                      A                      A                      A
 Frequencies --   1353.7722              1399.3380              1493.1217
 Red. masses --      1.6896                 1.2080                 2.2423
 Frc consts  --      1.8244                 1.3937                 2.9453
 IR Inten    --      2.6314                75.2648                 4.4216

                     28                     29                     30
                      A                      A                      A
 Frequencies --   1520.0819              1633.9002              1635.7657
 Red. masses --      2.1812                 5.7255                 6.0144
 Frc consts  --      2.9694                 9.0056                 9.4817
 IR Inten    --     75.5348                63.4768                 7.0828

                     31                     32                     33
                      A                      A                      A
 Frequencies --   3172.3188              3179.7542              3193.4779
 Red. masses --      1.0856                 1.0892                 1.0921
 Frc consts  --      6.4366                 6.4885                 6.5623
 IR Inten    --      0.5800                10.5298                13.4961

                     34                     35                     36
                      A                      A                      A
 Frequencies --   3200.5657              3236.6450              3766.5201
 Red. masses --      1.0966                 1.0915                 1.0685
 Frc consts  --      6.6184                 6.7367                 8.9311
 IR Inten    --      7.6613                 0.2056                71.6262

 - Thermochemistry -
 -------------------
 Temperature   298.150 Kelvin.  Pressure   1.00000 Atm.
 Atom     1 has atomic number  6 and mass  12.00000

 Molecular mass:   110.03678 amu.
 Principal axes and moments of inertia in atomic units:
                           1         2         3
     Eigenvalues --   354.013951155.373771504.96790
           X            0.99996   0.00611   0.00667
           Y           -0.00612   0.99998   0.00151
           Z           -0.00666  -0.00155   0.99998
 This molecule is an asymmetric top.
 Rotational symmetry number  1.
 Rotational temperatures (Kelvin)      0.24466     0.07497     0.05755
 Rotational constants (GHZ):           5.09794     1.56204     1.19919
 Zero-point vibrational energy     282119.0 (Joules/Mol)
                                   67.42806 (Kcal/Mol)
 Warning -- explicit consideration of   8 degrees of freedom as
           vibrations may cause significant error
 Vibrational temperatures:     84.68   235.17   320.29   376.54   605.29
          (Kelvin)            635.41   736.22   862.27   906.02  1015.77
                             1102.72  1168.31  1207.23  1312.47  1386.43
                             1416.49  1437.35  1462.20  1505.72  1588.75
                             1697.47  1703.42  1762.71  1917.77  1947.78
                             2013.34  2148.27  2187.06  2350.82  2353.50
                             4564.26  4574.96  4594.70  4604.90  4656.81
                             5419.18

 Zero-point correction=                           0.107453 (Hartree/Particle)
 Thermal correction to Energy=                    0.114494
 Thermal correction to Enthalpy=                  0.115439
 Thermal correction to Gibbs Free Energy=         0.075766
 Sum of electronic and zero-point Energies=           -382.644538
 Sum of electronic and thermal Energies=              -382.637497
 Sum of electronic and thermal Enthalpies=            -382.636553
 Sum of electronic and thermal Free Energies=         -382.676226

                     E (Thermal)             CV                S
                      KCal/Mol        Cal/Mol-Kelvin    Cal/Mol-Kelvin
 Total                   71.846             26.014             83.498
 Electronic               0.000              0.000              0.000
 Translational            0.889              2.981             40.003
 Rotational               0.889              2.981             27.911
 Vibrational             70.069             20.053             15.584
 Vibration     1          0.596              1.974              4.495
 Vibration     2          0.623              1.887              2.510
 Vibration     3          0.648              1.807              1.938
 Vibration     4          0.669              1.743              1.650
 Vibration     5          0.783              1.425              0.890
 Vibration     6          0.801              1.379              0.821
 Vibration     7          0.867              1.224              0.630
 Vibration     8          0.957              1.033              0.451

                           ! Non-Optimized Parameters !
 Normal termination of Gaussian 16 at Fri Jun 17 20:45:43 2022.
