 Gaussian 16, Revision B.01,

 ---------------------------------------
 # b3lyp/gen opt freq CPHF(Grid=OneStep)
 ---------------------------------------

 -----------------------
 biphenyl, B3LYP/pcseg-2
 -----------------------
 Symbolic Z-matrix:
 Charge =  0 Multiplicity = 1

 SCF Done:  E(RB3LYP) =  -463.478534307     A.U. after   13 cycles
 Optimization completed.
    -- Stationary point found.
 Normal termination of Gaussian 16 at Fri Sep 29 15:19:24 2023.

 ------------------------------------------------------------------
 #N Geom=AllCheck Guess=TCheck SCRF=Check GenChk RB3LYP/ChkBas Freq
 ------------------------------------------------------------------

 Structure from the checkpoint file:  "PhPh.chk"
 -----------------------
 biphenyl, B3LYP/pcseg-2
 -----------------------
 Charge =  0 Multiplicity = 1

 SCF Done:  E(RB3LYP) =  -463.478534307     A.U. after    1 cycles

  Exact polarizability:  80.514  -0.000 134.111   0.000   0.000 204.754
 Approx polarizability: 132.899   0.000 238.718   0.000  -0.000 296.120

                      1                      2                      3
                      A                     B3                     B2
 Frequencies --     65.5735                94.2923               126.8928
 Red. masses --      3.6856                 4.3545                 4.0393
 Frc consts  --      0.0093                 0.0228                 0.0383
 IR Inten    --      0.0000                 0.8841                 0.1247

                      4                      5                      6
                     B2                      A                     B3
 Frequencies --    267.7433               314.0673               370.8839
 Red. masses --      4.0942                 6.3254                 3.8380
 Frc consts  --      0.1729                 0.3676                 0.3110
 IR Inten    --      0.0133                 0.0000                 0.4257

                      7                      8                      9
                     B1                      A                     B3
 Frequencies --    416.0872               422.0965               503.3053
 Red. masses --      2.8829                 2.9043                 3.5529
 Frc consts  --      0.2941                 0.3049                 0.5303
 IR Inten    --      0.4334                 0.0000                 8.4366

                     10                     11                     12
                     B2                     B1                     B3
 Frequencies --    560.7637               627.6227               630.5310
 Red. masses --      2.8447                 6.8992                 6.4641
 Frc consts  --      0.5270                 1.6012                 1.5142
 IR Inten    --      3.0878                 7.3410                 0.0001

                     13                     14                     15
                     B2                     B2                     B3
 Frequencies --    642.8997               715.2414               719.3469
 Red. masses --      6.2622                 1.6243                 1.7587
 Frc consts  --      1.5250                 0.4896                 0.5362
 IR Inten    --      0.0590                10.3398                67.3371

                     16                     17                     18
                      A                     B3                     B2
 Frequencies --    758.4847               759.4697               802.9683
 Red. masses --      5.6410                 1.8149                 2.0114
 Frc consts  --      1.9120                 0.6168                 0.7641
 IR Inten    --      0.0000                71.2200                 6.8657

                     19                     20                     21
                      A                     B1                     B3
 Frequencies --    861.8317               862.4028               931.9329
 Red. masses --      1.2450                 1.2492                 1.3697
 Frc consts  --      0.5448                 0.5474                 0.7009
 IR Inten    --      0.0000                 0.3228                 2.6062

                     22                     23                     24
                     B2                      A                     B1
 Frequencies --    950.3135               997.0603               997.0875
 Red. masses --      1.5270                 1.4057                 1.3728
 Frc consts  --      0.8125                 0.8234                 0.8042
 IR Inten    --      1.2047                 0.0000                 0.6503

                     25                     26                     27
                     B2                     B3                     B1
 Frequencies --   1013.3370              1013.3517              1014.2523
 Red. masses --      1.3066                 1.2938                 6.2770
 Frc consts  --      0.7905                 0.7828                 3.8045
 IR Inten    --      0.0371                 0.0642                 0.8554

                     28                     29                     30
                      A                     B1                      A
 Frequencies --   1022.9362              1031.4529              1054.9009
 Red. masses --      5.5484                 6.3899                 2.2124
 Frc consts  --      3.4207                 4.0054                 1.4506
 IR Inten    --      0.0000                 7.1640                 0.0000

                     31                     32                     33
                     B1                     B2                     B3
 Frequencies --   1068.4828              1102.5677              1107.9980
 Red. masses --      1.8049                 1.7043                 1.5205
 Frc consts  --      1.2141                 1.2207                 1.0998
 IR Inten    --      2.8446                 7.9523                 0.7203

                     34                     35                     36
                     B3                     B2                     B1
 Frequencies --   1183.9050              1184.4345              1205.0005
 Red. masses --      1.1190                 1.1168                 1.1340
 Frc consts  --      0.9241                 0.9231                 0.9702
 IR Inten    --      0.0005                 0.0161                 0.3023

                     37                     38                     39
                      A                     B2                      A
 Frequencies --   1210.9804              1297.2170              1302.2513
 Red. masses --      1.1428                 3.1187                 3.4624
 Frc consts  --      0.9874                 3.0920                 3.4595
 IR Inten    --      0.0000                 1.1669                 0.0000

                     40                     41                     42
                     B3                     B2                     B3
 Frequencies --   1324.9039              1362.3267              1362.5442
 Red. masses --      6.9751                 1.7411                 1.3320
 Frc consts  --      7.2139                 1.9038                 1.4570
 IR Inten    --      0.0463                 0.9880                 0.0523

                     43                     44                     45
                     B2                     B3                     B1
 Frequencies --   1466.1705              1494.1084              1521.3103
 Red. masses --      2.0361                 2.2898                 2.0357
 Frc consts  --      2.5788                 3.0117                 2.7759
 IR Inten    --      6.9383                 1.1484                29.6994

                     46                     47                     48
                      A                     B2                     B3
 Frequencies --   1540.9711              1608.9278              1623.7330
 Red. masses --      2.3989                 4.7587                 5.8081
 Frc consts  --      3.3562                 7.2579                 9.0222
 IR Inten    --      0.0000                 3.7933                 0.2233

                     49                     50                     51
                      A                     B1                     B1
 Frequencies --   1640.1961              1643.5183              3165.4317
 Red. masses --      5.4377                 5.5192                 1.0850
 Frc consts  --      8.6191                 8.7837                 6.4052
 IR Inten    --      0.0000                14.6364                 7.1067

                     52                     53                     54
                      A                     B3                     B2
 Frequencies --   3166.3997              3170.7017              3173.6060
 Red. masses --      1.0850                 1.0871                 1.0874
 Frc consts  --      6.4091                 6.4390                 6.4526
 IR Inten    --      0.0000                 0.0239                 5.2580

                     55                     56                     57
                     B1                      A                     B3
 Frequencies --   3180.4020              3184.1282              3186.3365
 Red. masses --      1.0905                 1.0906                 1.0941
 Frc consts  --      6.4988                 6.5147                 6.5448
 IR Inten    --     20.9746                 0.0000                 6.8624

                     58                     59                     60
                     B2                     B1                      A
 Frequencies --   3189.2656              3195.2066              3196.4286
 Red. masses --      1.0930                 1.0977                 1.0974
 Frc consts  --      6.5500                 6.6027                 6.6063
 IR Inten    --     38.1544                27.4245                 0.0000

 - Thermochemistry -
 -------------------
 Temperature   298.150 Kelvin.  Pressure   1.00000 Atm.
 Atom     1 has atomic number  6 and mass  12.00000

 Molecular mass:   154.07825 amu.
 Principal axes and moments of inertia in atomic units:
                           1         2         3
     Eigenvalues --   625.836173290.849433772.42663
           X            0.00000   0.00000   1.00000
           Y            0.00000   1.00000  -0.00000
           Z            1.00000  -0.00000  -0.00000
 This molecule is an asymmetric top.
 Rotational symmetry number  4.
 Warning -- assumption of classical behavior for rotation
           may cause significant error
 Rotational temperatures (Kelvin)      0.13840     0.02632     0.02296
 Rotational constants (GHZ):           2.88373     0.54841     0.47840
 Zero-point vibrational energy     476165.1 (Joules/Mol)
                                  113.80618 (Kcal/Mol)
 Warning -- explicit consideration of  10 degrees of freedom as
           vibrations may cause significant error
 Vibrational temperatures:     94.35   135.67   182.57   385.22   451.87
          (Kelvin)            533.62   598.66   607.30   724.14   806.81
                              903.01   907.19   924.99  1029.07  1034.98
                             1091.29  1092.71  1155.29  1239.98  1240.81
                             1340.84  1367.29  1434.55  1434.59  1457.97
                             1457.99  1459.28  1471.78  1484.03  1517.77
                             1537.31  1586.35  1594.16  1703.38  1704.14
                             1733.73  1742.33  1866.41  1873.65  1906.24
                             1960.08  1960.40  2109.49  2149.69  2188.83
                             2217.11  2314.89  2336.19  2359.88  2364.66
                             4554.35  4555.74  4561.93  4566.11  4575.89
                             4581.25  4584.43  4588.64  4597.19  4598.95

 Zero-point correction=                           0.181362 (Hartree/Particle)
 Thermal correction to Energy=                    0.190235
 Thermal correction to Enthalpy=                  0.191179
 Thermal correction to Gibbs Free Energy=         0.148046
 Sum of electronic and zero-point Energies=           -463.297173
 Sum of electronic and thermal Energies=              -463.288300
 Sum of electronic and thermal Enthalpies=            -463.287355
 Sum of electronic and thermal Free Energies=         -463.330489

                     E (Thermal)             CV                S
                      KCal/Mol        Cal/Mol-Kelvin    Cal/Mol-Kelvin
 Total                  119.374             36.218             90.782
 Electronic               0.000              0.000              0.000
 Translational            0.889              2.981             41.007
 Rotational               0.889              2.981             27.676
 Vibrational            117.597             30.256             22.099
 Vibration     1          0.597              1.971              4.282
 Vibration     2          0.603              1.953              3.569
 Vibration     3          0.611              1.926              2.993
 Vibration     4          0.673              1.732              1.611
 Vibration     5          0.702              1.647              1.341
 Vibration     6          0.743              1.532              1.076
 Vibration     7          0.779              1.435              0.905
 Vibration     8          0.784              1.422              0.885
 Vibration     9          0.859              1.243              0.650
 Vibration    10          0.916              1.116              0.522

 Optimization completed.
    -- Stationary point found.
 Normal termination of Gaussian 16 at Fri Sep 29 16:11:32 2023.
 Gaussian 16:  ES64L-G16RevB.01 20-Dec-2017

 ---------------------------------
 # rohf/gen geom=check guess=check
 ---------------------------------

 --------------------------
 biphenyl, ROHF/cc-pVTZ-F12
 --------------------------
 Structure from the checkpoint file:  "PhPh.chk"
 Charge =  0 Multiplicity = 1

                         Standard orientation:
 ---------------------------------------------------------------------
 Center     Atomic      Atomic             Coordinates (Angstroms)
 Number     Number       Type             X           Y           Z
 ---------------------------------------------------------------------
      1          6           0        0.000000    0.000000    0.741413
      2          6           0        0.000000    0.000000   -0.741413
      3          6           0       -0.405346    1.129489    1.461527
      4          6           0        0.405346   -1.129489    1.461527
      5          6           0       -0.405346   -1.129489   -1.461527
      6          6           0        0.405346    1.129489   -1.461527
      7          6           0       -0.405938    1.129792    2.850263
      8          6           0        0.405938   -1.129792    2.850263
      9          6           0       -0.405938   -1.129792   -2.850263
     10          6           0        0.405938    1.129792   -2.850263
     11          6           0        0.000000    0.000000    3.551501
     12          6           0        0.000000    0.000000   -3.551501
     13          1           0       -0.745561    2.006780    0.928069
     14          1           0        0.745561   -2.006780    0.928069
     15          1           0       -0.745561   -2.006780   -0.928069
     16          1           0        0.745561    2.006780   -0.928069
     17          1           0       -0.732175    2.011707    3.385413
     18          1           0        0.732175   -2.011707    3.385413
     19          1           0       -0.732175   -2.011707   -3.385413
     20          1           0        0.732175    2.011707   -3.385413
     21          1           0        0.000000    0.000000    4.633091
     22          1           0        0.000000    0.000000   -4.633091
 ---------------------------------------------------------------------

 SCF Done:  E(ROHF) =  -460.427122615     A.U. after   12 cycles

 The electronic state is 1-A.
 Alpha  occ. eigenvalues --  -11.24585 -11.24511 -11.23511 -11.23511 -11.23482
 Alpha  occ. eigenvalues --  -11.23482 -11.23320 -11.23320 -11.23306 -11.23305
 Alpha  occ. eigenvalues --  -11.23249 -11.23249  -1.17185  -1.14400  -1.05547
 Alpha  occ. eigenvalues --   -1.02163  -1.01305  -0.98474  -0.85376  -0.84395
 Alpha  occ. eigenvalues --   -0.81196  -0.79225  -0.72145  -0.68375  -0.65558
 Alpha  occ. eigenvalues --   -0.64209  -0.61723  -0.60920  -0.59282  -0.58722
 Alpha  occ. eigenvalues --   -0.58366  -0.52253  -0.51933  -0.50501  -0.49345
 Alpha  occ. eigenvalues --   -0.48629  -0.48396  -0.37028  -0.33967  -0.33948
 Alpha  occ. eigenvalues --   -0.30292
 Alpha virt. eigenvalues --    0.04030   0.04665   0.04917   0.05772   0.05836
 Alpha virt. eigenvalues --    0.06602   0.07263   0.07671   0.08313   0.08452
 Alpha virt. eigenvalues --    0.08691   0.09222   0.09726   0.09874   0.10414

 Mulliken charges and spin densities:
               1          2
     1  C    0.324228   0.000000
     2  C    0.324228   0.000000
     3  C   -0.260813   0.000000
     4  C   -0.260813   0.000000
     5  C   -0.260813   0.000000
     6  C   -0.260813   0.000000
     7  C   -0.165680   0.000000
     8  C   -0.165680   0.000000
     9  C   -0.165680   0.000000
    10  C   -0.165680   0.000000
    11  C   -0.163788   0.000000
    12  C   -0.163788   0.000000
    13  H    0.138520   0.000000
    14  H    0.138520   0.000000
    15  H    0.138520   0.000000
    16  H    0.138520   0.000000
    17  H    0.138243   0.000000
    18  H    0.138243   0.000000
    19  H    0.138243   0.000000
    20  H    0.138243   0.000000
    21  H    0.139023   0.000000
    22  H    0.139023   0.000000
 Sum of Mulliken charges =  -0.00000   0.00000

 Dipole moment (field-independent basis, Debye):
    X=              0.0000    Y=              0.0000    Z=              0.0000  Tot=              0.0000
 Quadrupole moment (field-independent basis, Debye-Ang):
   XX=            -76.9632   YY=            -64.2866   ZZ=            -62.9226
   XY=             -0.0000   XZ=              0.0000   YZ=             -0.0000

 Normal termination of Gaussian 16 at Fri Sep 29 16:25:47 2023.
