 Gaussian 16, Revision B.01,
 Gaussian 16:  ES64L-G16RevB.01 20-Dec-2017

 --------------------
 # b3lyp/gen opt freq
 --------------------

 -----------------------
 biphenyl, B3LYP/pcseg-2
 -----------------------
 Symbolic Z-matrix:
 Charge =  0 Multiplicity = 1

 SCF Done:  E(RB3LYP) =  -463.478499276     A.U. after   13 cycles
 SCF Done:  E(RB3LYP) =  -463.478532882     A.U. after   11 cycles
 SCF Done:  E(RB3LYP) =  -463.478534077     A.U. after    7 cycles
 SCF Done:  E(RB3LYP) =  -463.478534307     A.U. after    7 cycles
 Optimization completed.
    -- Stationary point found.
 Normal termination of Gaussian 16 at Fri Jun 17 18:01:34 2022.

 ------------------------------------------------------------------
 #N Geom=AllCheck Guess=TCheck SCRF=Check GenChk RB3LYP/ChkBas Freq
 ------------------------------------------------------------------

 Structure from the checkpoint file:  "/wrk/irikura/Gau-12426.chk"
 -----------------------
 biphenyl, B3LYP/pcseg-2
 -----------------------
 Charge =  0 Multiplicity = 1

                         Standard orientation:
 ---------------------------------------------------------------------
 Center     Atomic      Atomic             Coordinates (Angstroms)
 Number     Number       Type             X           Y           Z
 ---------------------------------------------------------------------
      1          6           0        0.000000    0.000000    0.741413
      2          6           0        0.000000    0.000000   -0.741413
      3          6           0       -0.405346    1.129489    1.461527
      4          6           0        0.405346   -1.129489    1.461527
      5          6           0       -0.405346   -1.129489   -1.461527
      6          6           0        0.405346    1.129489   -1.461527
      7          6           0       -0.405938    1.129792    2.850263
      8          6           0        0.405938   -1.129792    2.850263
      9          6           0       -0.405938   -1.129792   -2.850263
     10          6           0        0.405938    1.129792   -2.850263
     11          6           0        0.000000    0.000000    3.551501
     12          6           0        0.000000    0.000000   -3.551501
     13          1           0       -0.745561    2.006780    0.928069
     14          1           0        0.745561   -2.006780    0.928069
     15          1           0       -0.745561   -2.006780   -0.928069
     16          1           0        0.745561    2.006780   -0.928069
     17          1           0       -0.732175    2.011707    3.385413
     18          1           0        0.732175   -2.011707    3.385413
     19          1           0       -0.732175   -2.011707   -3.385413
     20          1           0        0.732175    2.011707   -3.385413
     21          1           0        0.000000    0.000000    4.633091
     22          1           0        0.000000    0.000000   -4.633091
 ---------------------------------------------------------------------

 SCF Done:  E(RB3LYP) =  -463.478534307     A.U. after    1 cycles

 The electronic state is 1-A.
 Alpha  occ. eigenvalues --  -10.18837 -10.18806 -10.17788 -10.17788 -10.17777
 Alpha  occ. eigenvalues --  -10.17776 -10.17695 -10.17695 -10.17691 -10.17691
 Alpha  occ. eigenvalues --  -10.17645 -10.17645  -0.87520  -0.85325  -0.78289
 Alpha  occ. eigenvalues --   -0.75566  -0.74825  -0.72619  -0.62983  -0.62391
 Alpha  occ. eigenvalues --   -0.59688  -0.58351  -0.53898  -0.50540  -0.47471
 Alpha  occ. eigenvalues --   -0.47109  -0.44650  -0.44451  -0.43065  -0.42679
 Alpha  occ. eigenvalues --   -0.42350  -0.38516  -0.37239  -0.36757  -0.35733
 Alpha  occ. eigenvalues --   -0.34360  -0.34158  -0.28424  -0.26206  -0.26173
 Alpha  occ. eigenvalues --   -0.23565
 Alpha virt. eigenvalues --   -0.04096  -0.01988  -0.01639   0.01101   0.01420
 Alpha virt. eigenvalues --    0.02369   0.03359   0.04589   0.04869   0.06668
 Alpha virt. eigenvalues --    0.07290   0.08634   0.08775   0.09753   0.12455

 Mulliken charges:
               1
     1  C    0.278237
     2  C    0.278237
     3  C   -0.145969
     4  C   -0.145969
     5  C   -0.145969
     6  C   -0.145969
     7  C   -0.040366
     8  C   -0.040366
     9  C   -0.040366
    10  C   -0.040366
    11  C    0.009792
    12  C    0.009792
    13  H    0.018261
    14  H    0.018261
    15  H    0.018261
    16  H    0.018261
    17  H    0.013625
    18  H    0.013625
    19  H    0.013625
    20  H    0.013625
    21  H    0.020868
    22  H    0.020868
 Sum of Mulliken charges =  -0.00000

 Dipole moment (field-independent basis, Debye):
    X=             -0.0000    Y=              0.0000    Z=              0.0000  Tot=              0.0000
 Quadrupole moment (field-independent basis, Debye-Ang):
   XX=            -75.5519   YY=            -64.5179   ZZ=            -63.2157
   XY=              0.0000   XZ=              0.0000   YZ=              0.0000

  Exact polarizability:  80.513  -0.000 134.112   0.000   0.000 204.753
 Approx polarizability: 132.899   0.000 238.718  -0.000   0.000 296.120

                      1                      2                      3
                      A                     B3                     B2
 Frequencies --     65.5846                94.2930               126.8938
 Red. masses --      3.6856                 4.3545                 4.0393
 Frc consts  --      0.0093                 0.0228                 0.0383
 IR Inten    --      0.0000                 0.8840                 0.1247

                      4                      5                      6
                     B2                      A                     B3
 Frequencies --    267.7445               314.0687               370.8840
 Red. masses --      4.0942                 6.3254                 3.8380
 Frc consts  --      0.1729                 0.3676                 0.3111
 IR Inten    --      0.0133                 0.0000                 0.4255

                      7                      8                      9
                     B1                      A                     B3
 Frequencies --    416.0850               422.0964               503.3048
 Red. masses --      2.8829                 2.9043                 3.5529
 Frc consts  --      0.2941                 0.3049                 0.5303
 IR Inten    --      0.4332                 0.0000                 8.4379

                     10                     11                     12
                     B2                     B1                     B3
 Frequencies --    560.7638               627.6245               630.5308
 Red. masses --      2.8447                 6.8992                 6.4641
 Frc consts  --      0.5271                 1.6012                 1.5142
 IR Inten    --      3.0886                 7.3414                 0.0001

                     13                     14                     15
                     B2                     B2                     B3
 Frequencies --    642.8990               715.2445               719.3477
 Red. masses --      6.2622                 1.6243                 1.7587
 Frc consts  --      1.5250                 0.4896                 0.5362
 IR Inten    --      0.0591                10.3406                67.3332

                     16                     17                     18
                      A                     B3                     B2
 Frequencies --    758.4857               759.4704               802.9695
 Red. masses --      5.6409                 1.8149                 2.0114
 Frc consts  --      1.9120                 0.6168                 0.7641
 IR Inten    --      0.0000                71.2242                 6.8671

                     19                     20                     21
                      A                     B1                     B3
 Frequencies --    861.8400               862.4110               931.9375
 Red. masses --      1.2450                 1.2492                 1.3697
 Frc consts  --      0.5448                 0.5474                 0.7009
 IR Inten    --      0.0000                 0.3224                 2.6061

                     22                     23                     24
                     B2                      A                     B1
 Frequencies --    950.3176               997.0618               997.0895
 Red. masses --      1.5270                 1.4057                 1.3728
 Frc consts  --      0.8125                 0.8234                 0.8042
 IR Inten    --      1.2054                 0.0000                 0.6501

                     25                     26                     27
                     B2                     B3                     B1
 Frequencies --   1013.3390              1013.3538              1014.2518
 Red. masses --      1.3066                 1.2938                 6.2770
 Frc consts  --      0.7905                 0.7828                 3.8045
 IR Inten    --      0.0371                 0.0642                 0.8551

                     28                     29                     30
                      A                     B1                      A
 Frequencies --   1022.9363              1031.4532              1054.9006
 Red. masses --      5.5485                 6.3897                 2.2124
 Frc consts  --      3.4207                 4.0053                 1.4506
 IR Inten    --      0.0000                 7.1664                 0.0000

                     31                     32                     33
                     B1                     B2                     B3
 Frequencies --   1068.4785              1102.5672              1107.9970
 Red. masses --      1.8049                 1.7042                 1.5205
 Frc consts  --      1.2141                 1.2207                 1.0998
 IR Inten    --      2.8447                 7.9545                 0.7196

                     34                     35                     36
                     B3                     B2                     B1
 Frequencies --   1183.9055              1184.4351              1204.9982
 Red. masses --      1.1190                 1.1168                 1.1340
 Frc consts  --      0.9241                 0.9231                 0.9702
 IR Inten    --      0.0005                 0.0162                 0.3022

                     37                     38                     39
                      A                     B2                      A
 Frequencies --   1210.9797              1297.2172              1302.2514
 Red. masses --      1.1428                 3.1186                 3.4624
 Frc consts  --      0.9874                 3.0920                 3.4596
 IR Inten    --      0.0000                 1.1670                 0.0000

                     40                     41                     42
                     B3                     B2                     B3
 Frequencies --   1324.9034              1362.3273              1362.5433
 Red. masses --      6.9747                 1.7411                 1.3321
 Frc consts  --      7.2134                 1.9039                 1.4571
 IR Inten    --      0.0464                 0.9877                 0.0524

                     43                     44                     45
                     B2                     B3                     B1
 Frequencies --   1466.1711              1494.1069              1521.3120
 Red. masses --      2.0361                 2.2898                 2.0357
 Frc consts  --      2.5788                 3.0117                 2.7759
 IR Inten    --      6.9359                 1.1497                29.6932

                     46                     47                     48
                      A                     B2                     B3
 Frequencies --   1540.9692              1608.9287              1623.7336
 Red. masses --      2.3988                 4.7587                 5.8079
 Frc consts  --      3.3561                 7.2580                 9.0219
 IR Inten    --      0.0000                 3.7924                 0.2233

                     49                     50                     51
                      A                     B1                     B1
 Frequencies --   1640.1985              1643.5215              3165.4337
 Red. masses --      5.4377                 5.5192                 1.0850
 Frc consts  --      8.6191                 8.7836                 6.4052
 IR Inten    --      0.0000                14.6352                 7.0952

                     52                     53                     54
                      A                     B3                     B2
 Frequencies --   3166.3990              3170.7071              3173.6051
 Red. masses --      1.0850                 1.0871                 1.0874
 Frc consts  --      6.4091                 6.4391                 6.4526
 IR Inten    --      0.0000                 0.0240                 5.2513

                     55                     56                     57
                     B1                      A                     B3
 Frequencies --   3180.4053              3184.1225              3186.3405
 Red. masses --      1.0905                 1.0906                 1.0941
 Frc consts  --      6.4989                 6.5146                 6.5448
 IR Inten    --     20.9805                 0.0000                 6.8641

                     58                     59                     60
                     B2                     B1                      A
 Frequencies --   3189.2615              3195.2058              3196.4257
 Red. masses --      1.0930                 1.0977                 1.0974
 Frc consts  --      6.5500                 6.6027                 6.6063
 IR Inten    --     38.1573                27.4197                 0.0000

 - Thermochemistry -
 -------------------
 Temperature   298.150 Kelvin.  Pressure   1.00000 Atm.
 Atom     1 has atomic number  6 and mass  12.00000

 Molecular mass:   154.07825 amu.
 Principal axes and moments of inertia in atomic units:
                           1         2         3
     Eigenvalues --   625.836063290.849313772.42655
           X            0.00000   0.00000   1.00000
           Y            0.00000   1.00000  -0.00000
           Z            1.00000  -0.00000  -0.00000
 This molecule is an asymmetric top.
 Rotational symmetry number  4.
 Warning -- assumption of classical behavior for rotation
           may cause significant error
 Rotational temperatures (Kelvin)      0.13840     0.02632     0.02296
 Rotational constants (GHZ):           2.88373     0.54841     0.47840
 Zero-point vibrational energy     476165.4 (Joules/Mol)
                                  113.80626 (Kcal/Mol)
 Warning -- explicit consideration of  10 degrees of freedom as
           vibrations may cause significant error
 Vibrational temperatures:     94.36   135.67   182.57   385.22   451.87
          (Kelvin)            533.62   598.65   607.30   724.14   806.81
                              903.01   907.19   924.99  1029.08  1034.98
                             1091.29  1092.71  1155.29  1240.00  1240.82
                             1340.85  1367.30  1434.55  1434.59  1457.97
                             1457.99  1459.28  1471.78  1484.03  1517.77
                             1537.30  1586.35  1594.16  1703.38  1704.14
                             1733.72  1742.33  1866.41  1873.65  1906.24
                             1960.09  1960.40  2109.49  2149.69  2188.83
                             2217.11  2314.89  2336.19  2359.88  2364.66
                             4554.35  4555.74  4561.94  4566.11  4575.89
                             4581.24  4584.43  4588.64  4597.19  4598.94

 Zero-point correction=                           0.181362 (Hartree/Particle)
 Thermal correction to Energy=                    0.190235
 Thermal correction to Enthalpy=                  0.191179
 Thermal correction to Gibbs Free Energy=         0.148046
 Sum of electronic and zero-point Energies=           -463.297172
 Sum of electronic and thermal Energies=              -463.288300
 Sum of electronic and thermal Enthalpies=            -463.287355
 Sum of electronic and thermal Free Energies=         -463.330488

                     E (Thermal)             CV                S
                      KCal/Mol        Cal/Mol-Kelvin    Cal/Mol-Kelvin
 Total                  119.374             36.218             90.781
 Electronic               0.000              0.000              0.000
 Translational            0.889              2.981             41.007
 Rotational               0.889              2.981             27.676
 Vibrational            117.597             30.256             22.099
 Vibration     1          0.597              1.971              4.282
 Vibration     2          0.603              1.953              3.569
 Vibration     3          0.611              1.926              2.993
 Vibration     4          0.673              1.732              1.611
 Vibration     5          0.702              1.647              1.341
 Vibration     6          0.743              1.532              1.076
 Vibration     7          0.779              1.435              0.905
 Vibration     8          0.784              1.422              0.885
 Vibration     9          0.859              1.243              0.650
 Vibration    10          0.916              1.116              0.522

 Optimization completed.
    -- Stationary point found.
 Normal termination of Gaussian 16 at Fri Jun 17 18:15:54 2022.
