 Gaussian 16, Revision B.01,
 Gaussian 16:  ES64L-G16RevB.01 20-Dec-2017

 --------------------
 # b3lyp/gen opt freq
 --------------------

 -------------------------------
 tetracyclic C6H6, B3LYP/pcseg-2
 -------------------------------
 Symbolic Z-matrix:
 Charge =  0 Multiplicity = 1

 SCF Done:  E(RB3LYP) =  -232.139664818     A.U. after   10 cycles
 SCF Done:  E(RB3LYP) =  -232.139682097     A.U. after    6 cycles
 Optimization completed.
    -- Stationary point found.
 Normal termination of Gaussian 16 at Fri Jun 17 15:50:39 2022.

 ------------------------------------------------------------------
 #N Geom=AllCheck Guess=TCheck SCRF=Check GenChk RB3LYP/ChkBas Freq
 ------------------------------------------------------------------

 Structure from the checkpoint file:  "/wrk/irikura/Gau-15852.chk"
 -------------------------------
 tetracyclic C6H6, B3LYP/pcseg-2
 -------------------------------
 Charge =  0 Multiplicity = 1

                         Standard orientation:
 ---------------------------------------------------------------------
 Center     Atomic      Atomic             Coordinates (Angstroms)
 Number     Number       Type             X           Y           Z
 ---------------------------------------------------------------------
      1          6           0        0.000000    0.876970    0.778263
      2          6           0       -0.759478   -0.438485    0.778263
      3          6           0        0.759478   -0.438485    0.778263
      4          6           0        0.000000    0.876970   -0.778263
      5          6           0        0.759478   -0.438485   -0.778263
      6          6           0       -0.759478   -0.438485   -0.778263
      7          1           0        0.000000    1.669762    1.510079
      8          1           0       -1.446056   -0.834881    1.510079
      9          1           0        1.446056   -0.834881    1.510079
     10          1           0        0.000000    1.669762   -1.510079
     11          1           0        1.446056   -0.834881   -1.510079
     12          1           0       -1.446056   -0.834881   -1.510079
 ---------------------------------------------------------------------

 SCF Done:  E(RB3LYP) =  -232.139682097     A.U. after    1 cycles

 The electronic state is 1-A1'.
 Alpha  occ. eigenvalues --  -10.18166 -10.18148 -10.18129 -10.18129 -10.18110
 Alpha  occ. eigenvalues --  -10.18110  -0.96714  -0.75126  -0.64274  -0.64274
 Alpha  occ. eigenvalues --   -0.53940  -0.52064  -0.52064  -0.43925  -0.43493
 Alpha  occ. eigenvalues --   -0.40269  -0.40269  -0.29644  -0.29644  -0.23386
 Alpha  occ. eigenvalues --   -0.23386
 Alpha virt. eigenvalues --    0.02358   0.03056   0.04537   0.04537   0.06395
 Alpha virt. eigenvalues --    0.07029   0.07029   0.08189   0.10933   0.10933
 Alpha virt. eigenvalues --    0.13874   0.17708   0.17708   0.17797   0.19034

 Mulliken charges:
               1
     1  C   -0.044313
     2  C   -0.044313
     3  C   -0.044313
     4  C   -0.044313
     5  C   -0.044313
     6  C   -0.044313
     7  H    0.044313
     8  H    0.044313
     9  H    0.044313
    10  H    0.044313
    11  H    0.044313
    12  H    0.044313
 Sum of Mulliken charges =   0.00000

 Dipole moment (field-independent basis, Debye):
    X=              0.0000    Y=              0.0000    Z=             -0.0000  Tot=              0.0000
 Quadrupole moment (field-independent basis, Debye-Ang):
   XX=            -35.8467   YY=            -35.8467   ZZ=            -33.3260
   XY=              0.0000   XZ=             -0.0000   YZ=              0.0000

  Exact polarizability:  56.287  -0.000  56.288  -0.000   0.000  59.996
 Approx polarizability:  87.760   0.000  87.760  -0.000   0.000  82.652

                      1                      2                      3
                     A1"                    E"                     E"
 Frequencies --    645.5381               694.0016               694.0016
 Red. masses --      2.8350                 1.5526                 1.5526
 Frc consts  --      0.6961                 0.4406                 0.4406
 IR Inten    --      0.0000                 0.0000                 0.0000

                      4                      5                      6
                     E"                     E"                     E'
 Frequencies --    769.2642               769.2642               814.7442
 Red. masses --      3.8659                 3.8659                 1.3447
 Frc consts  --      1.3479                 1.3479                 0.5259
 IR Inten    --      0.0000                 0.0000                55.9940

                      7                      8                      9
                     E'                     E'                     E'
 Frequencies --    814.7442               841.0197               841.0197
 Red. masses --      1.3447                 1.6634                 1.6634
 Frc consts  --      0.5259                 0.6932                 0.6932
 IR Inten    --     55.9946                 0.2687                 0.2687

                     10                     11                     12
                     E'                     E'                     A1'
 Frequencies --    925.6924               925.6924               943.8470
 Red. masses --      3.4932                 3.4932                 1.4080
 Frc consts  --      1.7636                 1.7636                 0.7390
 IR Inten    --      0.8546                 0.8546                 0.0000

                     13                     14                     15
                     A2"                    A1"                    A2'
 Frequencies --    975.0841              1005.5399              1005.9330
 Red. masses --      1.3260                 1.3834                 1.2819
 Frc consts  --      0.7428                 0.8242                 0.7643
 IR Inten    --      3.1065                 0.0000                 0.0000

                     16                     17                     18
                     E"                     E"                     A1'
 Frequencies --   1013.4634              1013.4634              1115.1890
 Red. masses --      2.8057                 2.8057                 2.9593
 Frc consts  --      1.6979                 1.6979                 2.1684
 IR Inten    --      0.0000                 0.0000                 0.0000

                     19                     20                     21
                     E"                     E"                     E'
 Frequencies --   1177.3288              1177.3288              1258.0255
 Red. masses --      1.3320                 1.3320                 1.8966
 Frc consts  --      1.0878                 1.0878                 1.7685
 IR Inten    --      0.0000                 0.0000                12.6768

                     22                     23                     24
                     E'                     A1'                    A2"
 Frequencies --   1258.0255              1294.9957              1341.1741
 Red. masses --      1.8966                 4.9633                 3.0188
 Frc consts  --      1.7685                 4.9040                 3.1993
 IR Inten    --     12.6768                 0.0000                 0.3050

                     25                     26                     27
                     E"                     E"                     E'
 Frequencies --   3186.9462              3186.9462              3198.7918
 Red. masses --      1.0900                 1.0900                 1.0934
 Frc consts  --      6.5224                 6.5224                 6.5918
 IR Inten    --      0.0000                 0.0000                27.1016

                     28                     29                     30
                     E'                     A2"                    A1'
 Frequencies --   3198.7918              3204.6474              3212.7671
 Red. masses --      1.0934                 1.0965                 1.1093
 Frc consts  --      6.5918                 6.6347                 6.7460
 IR Inten    --     27.1012                46.9561                 0.0000

 - Thermochemistry -
 -------------------
 Temperature   298.150 Kelvin.  Pressure   1.00000 Atm.
 Atom     1 has atomic number  6 and mass  12.00000

 Molecular mass:    78.04695 amu.
 Principal axes and moments of inertia in atomic units:
                           1         2         3
     Eigenvalues --   257.94866 333.95001 333.95001
           X           -0.00000   0.24254   0.97014
           Y           -0.00000   0.97014  -0.24254
           Z            1.00000   0.00000   0.00000
 This molecule is a prolate symmetric top.
 Rotational symmetry number  6.
 Rotational temperatures (Kelvin)      0.33578     0.25936     0.25936
 Rotational constants (GHZ):           6.99651     5.40423     5.40423
 Zero-point vibrational energy     254226.0 (Joules/Mol)
                                   60.76148 (Kcal/Mol)
 Vibrational temperatures:    928.79   998.51   998.51  1106.80  1106.80
          (Kelvin)           1172.24  1172.24  1210.04  1210.04  1331.86
                             1331.86  1357.99  1402.93  1446.75  1447.31
                             1458.15  1458.15  1604.51  1693.91  1693.91
                             1810.02  1810.02  1863.21  1929.65  4585.30
                             4585.30  4602.35  4602.35  4610.77  4622.46

 Zero-point correction=                           0.096830 (Hartree/Particle)
 Thermal correction to Energy=                    0.100921
 Thermal correction to Enthalpy=                  0.101866
 Thermal correction to Gibbs Free Energy=         0.071647
 Sum of electronic and zero-point Energies=           -232.042853
 Sum of electronic and thermal Energies=              -232.038761
 Sum of electronic and thermal Enthalpies=            -232.037816
 Sum of electronic and thermal Free Energies=         -232.068035

                     E (Thermal)             CV                S
                      KCal/Mol        Cal/Mol-Kelvin    Cal/Mol-Kelvin
 Total                   63.329             16.985             63.600
 Electronic               0.000              0.000              0.000
 Translational            0.889              2.981             38.979
 Rotational               0.889              2.981             21.307
 Vibrational             61.552             11.023              3.314

 Optimization completed.
    -- Stationary point found.
 Normal termination of Gaussian 16 at Fri Jun 17 15:51:51 2022.
