 Gaussian 16, Revision B.01,

 ---------------------------------------
 # b3lyp/gen opt freq CPHF(Grid=OneStep)
 ---------------------------------------

 -------------------------------
 tetracyclic C6H6, B3LYP/pcseg-2
 -------------------------------
 Symbolic Z-matrix:
 Charge =  0 Multiplicity = 1

 SCF Done:  E(RB3LYP) =  -232.139682096     A.U. after   10 cycles
 Optimization completed.
    -- Stationary point found.
 Normal termination of Gaussian 16 at Fri Sep 29 14:02:03 2023.

 ------------------------------------------------------------------
 #N Geom=AllCheck Guess=TCheck SCRF=Check GenChk RB3LYP/ChkBas Freq
 ------------------------------------------------------------------

 Structure from the checkpoint file:  "prismane.chk"
 -------------------------------
 tetracyclic C6H6, B3LYP/pcseg-2
 -------------------------------
 Charge =  0 Multiplicity = 1

 SCF Done:  E(RB3LYP) =  -232.139682096     A.U. after    1 cycles

  Exact polarizability:  56.288  -0.000  56.287  -0.000   0.000  59.996
 Approx polarizability:  87.760   0.000  87.760  -0.000   0.000  82.652

                      1                      2                      3
                     A1"                    E"                     E"
 Frequencies --    645.5379               693.9964               693.9964
 Red. masses --      2.8350                 1.5525                 1.5525
 Frc consts  --      0.6961                 0.4406                 0.4406
 IR Inten    --      0.0000                 0.0000                 0.0000

                      4                      5                      6
                     E"                     E"                     E'
 Frequencies --    769.2566               769.2566               814.7417
 Red. masses --      3.8662                 3.8662                 1.3447
 Frc consts  --      1.3480                 1.3480                 0.5259
 IR Inten    --      0.0000                 0.0000                55.9935

                      7                      8                      9
                     E'                     E'                     E'
 Frequencies --    814.7417               841.0172               841.0172
 Red. masses --      1.3447                 1.6634                 1.6634
 Frc consts  --      0.5259                 0.6932                 0.6932
 IR Inten    --     55.9932                 0.2681                 0.2681

                     10                     11                     12
                     E'                     E'                     A1'
 Frequencies --    925.6920               925.6920               943.8465
 Red. masses --      3.4932                 3.4932                 1.4079
 Frc consts  --      1.7636                 1.7636                 0.7390
 IR Inten    --      0.8549                 0.8548                 0.0000

                     13                     14                     15
                     A2"                    A1"                    A2'
 Frequencies --    975.0799              1005.5389              1005.9322
 Red. masses --      1.3260                 1.3834                 1.2819
 Frc consts  --      0.7428                 0.8242                 0.7643
 IR Inten    --      3.1071                 0.0000                 0.0000

                     16                     17                     18
                     E"                     E"                     A1'
 Frequencies --   1013.4633              1013.4633              1115.1882
 Red. masses --      2.8057                 2.8057                 2.9595
 Frc consts  --      1.6979                 1.6979                 2.1685
 IR Inten    --      0.0000                 0.0000                 0.0000

                     19                     20                     21
                     E"                     E"                     E'
 Frequencies --   1177.3284              1177.3284              1258.0263
 Red. masses --      1.3320                 1.3320                 1.8966
 Frc consts  --      1.0878                 1.0878                 1.7685
 IR Inten    --      0.0000                 0.0000                12.6773

                     22                     23                     24
                     E'                     A1'                    A2"
 Frequencies --   1258.0263              1294.9949              1341.1737
 Red. masses --      1.8966                 4.9632                 3.0187
 Frc consts  --      1.7685                 4.9039                 3.1992
 IR Inten    --     12.6773                 0.0000                 0.3053

                     25                     26                     27
                     E"                     E"                     E'
 Frequencies --   3186.9481              3186.9481              3198.7934
 Red. masses --      1.0900                 1.0900                 1.0934
 Frc consts  --      6.5225                 6.5225                 6.5918
 IR Inten    --      0.0000                 0.0000                27.1030

                     28                     29                     30
                     E'                     A2"                    A1'
 Frequencies --   3198.7934              3204.6499              3212.7697
 Red. masses --      1.0934                 1.0965                 1.1093
 Frc consts  --      6.5918                 6.6347                 6.7460
 IR Inten    --     27.1035                46.9585                 0.0000

 - Thermochemistry -
 -------------------
 Temperature   298.150 Kelvin.  Pressure   1.00000 Atm.
 Atom     1 has atomic number  6 and mass  12.00000

 Molecular mass:    78.04695 amu.
 Principal axes and moments of inertia in atomic units:
                           1         2         3
     Eigenvalues --   257.94884 333.95001 333.95001
           X            0.00000  -0.00000   1.00000
           Y            0.00000   1.00000   0.00000
           Z            1.00000   0.00000   0.00000
 This molecule is a prolate symmetric top.
 Rotational symmetry number  6.
 Rotational temperatures (Kelvin)      0.33578     0.25936     0.25936
 Rotational constants (GHZ):           6.99651     5.40423     5.40423
 Zero-point vibrational energy     254225.8 (Joules/Mol)
                                   60.76143 (Kcal/Mol)
 Vibrational temperatures:    928.79   998.51   998.51  1106.79  1106.79
          (Kelvin)           1172.23  1172.23  1210.04  1210.04  1331.86
                             1331.86  1357.98  1402.92  1446.75  1447.31
                             1458.15  1458.15  1604.51  1693.91  1693.91
                             1810.02  1810.02  1863.21  1929.65  4585.31
                             4585.31  4602.35  4602.35  4610.78  4622.46

 Zero-point correction=                           0.096830 (Hartree/Particle)
 Thermal correction to Energy=                    0.100921
 Thermal correction to Enthalpy=                  0.101866
 Thermal correction to Gibbs Free Energy=         0.071647
 Sum of electronic and zero-point Energies=           -232.042853
 Sum of electronic and thermal Energies=              -232.038761
 Sum of electronic and thermal Enthalpies=            -232.037817
 Sum of electronic and thermal Free Energies=         -232.068035

                     E (Thermal)             CV                S
                      KCal/Mol        Cal/Mol-Kelvin    Cal/Mol-Kelvin
 Total                   63.329             16.985             63.600
 Electronic               0.000              0.000              0.000
 Translational            0.889              2.981             38.979
 Rotational               0.889              2.981             21.307
 Vibrational             61.552             11.023              3.314

 Optimization completed.
    -- Stationary point found.
 Normal termination of Gaussian 16 at Fri Sep 29 14:08:19 2023.
 Gaussian 16:  ES64L-G16RevB.01 20-Dec-2017

 ---------------------------------
 # rohf/gen geom=check guess=check
 ---------------------------------

 ----------------------------------
 tetracyclic C6H6, ROHF/cc-pVTZ-F12
 ----------------------------------
 Structure from the checkpoint file:  "prismane.chk"
 Charge =  0 Multiplicity = 1

                         Standard orientation:
 ---------------------------------------------------------------------
 Center     Atomic      Atomic             Coordinates (Angstroms)
 Number     Number       Type             X           Y           Z
 ---------------------------------------------------------------------
      1          6           0        0.000000    0.876970    0.778263
      2          6           0       -0.759478   -0.438485    0.778263
      3          6           0        0.759478   -0.438485    0.778263
      4          6           0        0.000000    0.876970   -0.778263
      5          6           0        0.759478   -0.438485   -0.778263
      6          6           0       -0.759478   -0.438485   -0.778263
      7          1           0        0.000000    1.669762    1.510079
      8          1           0       -1.446056   -0.834881    1.510079
      9          1           0        1.446056   -0.834881    1.510079
     10          1           0        0.000000    1.669762   -1.510079
     11          1           0        1.446056   -0.834881   -1.510079
     12          1           0       -1.446056   -0.834881   -1.510079
 ---------------------------------------------------------------------

 SCF Done:  E(ROHF) =  -230.589965278     A.U. after   10 cycles

 The electronic state is 1-A1'.
 Alpha  occ. eigenvalues --  -11.23203 -11.23153 -11.23108 -11.23108 -11.23056
 Alpha  occ. eigenvalues --  -11.23056  -1.26591  -1.00284  -0.87340  -0.87340
 Alpha  occ. eigenvalues --   -0.71635  -0.71283  -0.71283  -0.58687  -0.57906
 Alpha  occ. eigenvalues --   -0.54860  -0.54860  -0.41434  -0.41434  -0.34211
 Alpha  occ. eigenvalues --   -0.34211
 Alpha virt. eigenvalues --    0.04342   0.05032   0.05197   0.05197   0.06908
 Alpha virt. eigenvalues --    0.06908   0.09625   0.09948   0.09948   0.12140
 Alpha virt. eigenvalues --    0.12338   0.12338   0.12403   0.12403   0.12526

 Mulliken charges and spin densities:
               1          2
     1  C   -0.157290   0.000000
     2  C   -0.157290   0.000000
     3  C   -0.157290   0.000000
     4  C   -0.157290   0.000000
     5  C   -0.157290   0.000000
     6  C   -0.157290   0.000000
     7  H    0.157290   0.000000
     8  H    0.157290   0.000000
     9  H    0.157290   0.000000
    10  H    0.157290   0.000000
    11  H    0.157290   0.000000
    12  H    0.157290   0.000000
 Sum of Mulliken charges =  -0.00000   0.00000

 Dipole moment (field-independent basis, Debye):
    X=              0.0000    Y=              0.0000    Z=              0.0000  Tot=              0.0000
 Quadrupole moment (field-independent basis, Debye-Ang):
   XX=            -35.7613   YY=            -35.7613   ZZ=            -33.2719
   XY=             -0.0000   XZ=              0.0000   YZ=             -0.0000

 Normal termination of Gaussian 16 at Fri Sep 29 14:09:00 2023.
