 Gaussian 16, Revision B.01,

 ---------------------------------------
 # b3lyp/gen opt freq CPHF(Grid=OneStep)
 ---------------------------------------

 ----------------------------
 n-propylamine, B3LYP/pcseg-2
 ----------------------------
 Symbolic Z-matrix:
 Charge =  0 Multiplicity = 1

 SCF Done:  E(RB3LYP) =  -174.566253979     A.U. after   12 cycles
 Optimization completed.
    -- Stationary point found.
 Normal termination of Gaussian 16 at Sat Sep 30 10:41:06 2023.

 ------------------------------------------------------------------
 #N Geom=AllCheck Guess=TCheck SCRF=Check GenChk RB3LYP/ChkBas Freq
 ------------------------------------------------------------------

 Structure from the checkpoint file:  "PrNH2.chk"
 ----------------------------
 n-propylamine, B3LYP/pcseg-2
 ----------------------------
 Charge =  0 Multiplicity = 1

 SCF Done:  E(RB3LYP) =  -174.566253979     A.U. after    1 cycles

  Exact polarizability:  51.749   4.619  49.977  -0.000   0.000  43.904
 Approx polarizability:  65.546   0.435  62.612  -0.000  -0.000  63.852

                      1                      2                      3
                     A"                     A"                     A'
 Frequencies --    131.3429               220.3228               266.1003
 Red. masses --      2.0094                 1.0863                 2.4925
 Frc consts  --      0.0204                 0.0311                 0.1040
 IR Inten    --      0.1275                 8.3170                 4.0061

                      4                      5                      6
                     A"                     A'                     A"
 Frequencies --    271.8826               444.3411               746.4088
 Red. masses --      1.0979                 2.9061                 1.0785
 Frc consts  --      0.0478                 0.3381                 0.3540
 IR Inten    --     36.2656                 3.0827                 1.9822

                      7                      8                      9
                     A'                     A"                     A'
 Frequencies --    814.4578               860.5974               903.3402
 Red. masses --      1.6037                 1.1466                 1.5810
 Frc consts  --      0.6268                 0.5003                 0.7601
 IR Inten    --    135.5476                 0.9703                68.6136

                     10                     11                     12
                     A'                     A"                     A'
 Frequencies --   1023.9698              1033.5962              1080.4539
 Red. masses --      3.3473                 1.1009                 2.9755
 Frc consts  --      2.0678                 0.6930                 2.0465
 IR Inten    --      0.3663                 0.0121                17.2636

                     13                     14                     15
                     A'                     A"                     A"
 Frequencies --   1133.6646              1242.2065              1323.5679
 Red. masses --      2.2928                 1.5229                 1.1577
 Frc consts  --      1.7362                 1.3846                 1.1949
 IR Inten    --      2.2470                 0.0015                 0.5275

                     16                     17                     18
                     A'                     A"                     A'
 Frequencies --   1330.5204              1384.3256              1394.9799
 Red. masses --      1.3215                 1.1699                 1.3824
 Frc consts  --      1.3783                 1.3210                 1.5850
 IR Inten    --      5.9263                 0.1213                 4.0164

                     19                     20                     21
                     A'                     A'                     A'
 Frequencies --   1413.8113              1483.5603              1495.0362
 Red. masses --      1.2230                 1.0708                 1.0620
 Frc consts  --      1.4403                 1.3885                 1.3986
 IR Inten    --      4.1185                 0.0225                 1.1204

                     22                     23                     24
                     A"                     A'                     A'
 Frequencies --   1499.4410              1509.7414              1660.0383
 Red. masses --      1.0393                 1.0851                 1.0877
 Frc consts  --      1.3768                 1.4572                 1.7661
 IR Inten    --      7.4261                 5.9901                25.1986

                     25                     26                     27
                     A'                     A'                     A'
 Frequencies --   3004.7454              3018.5144              3026.0334
 Red. masses --      1.0582                 1.0566                 1.0380
 Frc consts  --      5.6292                 5.6723                 5.6002
 IR Inten    --     13.9934                37.1551                53.4181

                     28                     29                     30
                     A"                     A"                     A"
 Frequencies --   3026.1917              3056.8224              3084.0533
 Red. masses --      1.1016                 1.1064                 1.1025
 Frc consts  --      5.9440                 6.0913                 6.1782
 IR Inten    --      2.1489                32.1777                64.0279

                     31                     32                     33
                     A'                     A'                     A"
 Frequencies --   3091.4950              3491.2481              3569.4217
 Red. masses --      1.1008                 1.0484                 1.0935
 Frc consts  --      6.1987                 7.5287                 8.2087
 IR Inten    --     35.3589                 1.1388                 0.4911

 - Thermochemistry -
 -------------------
 Temperature   298.150 Kelvin.  Pressure   1.00000 Atm.
 Atom     1 has atomic number  6 and mass  12.00000

 Molecular mass:    59.07350 amu.
 Principal axes and moments of inertia in atomic units:
                           1         2         3
     Eigenvalues --    72.24077 491.95385 521.48481
           X            0.68676   0.72688   0.00000
           Y            0.72688  -0.68676   0.00000
           Z            0.00000  -0.00000   1.00000
 This molecule is an asymmetric top.
 Rotational symmetry number  1.
 Rotational temperatures (Kelvin)      1.19896     0.17606     0.16609
 Rotational constants (GHZ):          24.98231     3.66852     3.46077
 Zero-point vibrational energy     317227.1 (Joules/Mol)
                                   75.81910 (Kcal/Mol)
 Warning -- explicit consideration of   5 degrees of freedom as
           vibrations may cause significant error
 Vibrational temperatures:    188.97   317.00   382.86   391.18   639.31
          (Kelvin)           1073.92  1171.82  1238.21  1299.71  1473.26
                             1487.11  1554.53  1631.09  1787.26  1904.32
                             1914.32  1991.74  2007.06  2034.16  2134.51
                             2151.02  2157.36  2172.18  2388.42  4323.16
                             4342.97  4353.79  4354.01  4398.09  4437.26
                             4447.97  5023.13  5135.60

 Zero-point correction=                           0.120825 (Hartree/Particle)
 Thermal correction to Energy=                    0.126533
 Thermal correction to Enthalpy=                  0.127477
 Thermal correction to Gibbs Free Energy=         0.092928
 Sum of electronic and zero-point Energies=           -174.445429
 Sum of electronic and thermal Energies=              -174.439721
 Sum of electronic and thermal Enthalpies=            -174.438777
 Sum of electronic and thermal Free Energies=         -174.473326

                     E (Thermal)             CV                S
                      KCal/Mol        Cal/Mol-Kelvin    Cal/Mol-Kelvin
 Total                   79.401             19.309             72.714
 Electronic               0.000              0.000              0.000
 Translational            0.889              2.981             38.149
 Rotational               0.889              2.981             24.431
 Vibrational             77.623             13.347             10.134
 Vibration     1          0.612              1.922              2.926
 Vibration     2          0.647              1.810              1.956
 Vibration     3          0.672              1.735              1.621
 Vibration     4          0.675              1.725              1.584
 Vibration     5          0.804              1.373              0.813

 Optimization completed.
    -- Stationary point found.
 Normal termination of Gaussian 16 at Sat Sep 30 10:49:04 2023.
 Gaussian 16:  ES64L-G16RevB.01 20-Dec-2017

 ---------------------------------
 # rohf/gen geom=check guess=check
 ---------------------------------

 -------------------------------
 n-propylamine, ROHF/cc-pVTZ-F12
 -------------------------------
 Structure from the checkpoint file:  "PrNH2.chk"
 Charge =  0 Multiplicity = 1

                         Standard orientation:
 ---------------------------------------------------------------------
 Center     Atomic      Atomic             Coordinates (Angstroms)
 Number     Number       Type             X           Y           Z
 ---------------------------------------------------------------------
      1          6           0        1.426339    1.299414    0.000000
      2          6           0        0.000000    0.751065    0.000000
      3          6           0       -0.052545   -0.780049    0.000000
      4          7           0       -1.385119   -1.382876    0.000000
      5          1           0        1.435510    2.389772    0.000000
      6          1           0        1.978086    0.964274    0.880544
      7          1           0        1.978086    0.964274   -0.880544
      8          1           0       -0.540185    1.124543    0.875509
      9          1           0       -0.540185    1.124543   -0.875509
     10          1           0        0.484444   -1.160359   -0.873043
     11          1           0        0.484444   -1.160359    0.873043
     12          1           0       -1.913562   -1.094571   -0.814063
     13          1           0       -1.913562   -1.094571    0.814063
 ---------------------------------------------------------------------

 SCF Done:  E(ROHF) =  -173.363475872     A.U. after   11 cycles

 The electronic state is 1-A'.
 Alpha  occ. eigenvalues --  -15.53447 -11.24275 -11.21719 -11.21293  -1.17463
 Alpha  occ. eigenvalues --   -1.03621  -0.89850  -0.80542  -0.67496  -0.60743
 Alpha  occ. eigenvalues --   -0.60421  -0.56154  -0.52191  -0.51755  -0.48699
 Alpha  occ. eigenvalues --   -0.47062  -0.38317
 Alpha virt. eigenvalues --    0.04952   0.04962   0.05965   0.06742   0.08681
 Alpha virt. eigenvalues --    0.09368   0.09594   0.09628   0.10694   0.12586
 Alpha virt. eigenvalues --    0.13824   0.14857   0.17449   0.17885   0.18977

 Mulliken charges and spin densities:
               1          2
     1  C   -0.284966   0.000000
     2  C   -0.092513   0.000000
     3  C    0.045971   0.000000
     4  N   -0.724530   0.000000
     5  H    0.083975   0.000000
     6  H    0.084260   0.000000
     7  H    0.084260   0.000000
     8  H    0.068003   0.000000
     9  H    0.068003   0.000000
    10  H    0.096075   0.000000
    11  H    0.096075   0.000000
    12  H    0.237694   0.000000
    13  H    0.237694   0.000000
 Sum of Mulliken charges =   0.00000   0.00000

 Dipole moment (field-independent basis, Debye):
    X=             -0.1122    Y=              1.4270    Z=             -0.0000  Tot=              1.4314
 Quadrupole moment (field-independent basis, Debye-Ang):
   XX=            -26.5271   YY=            -33.0458   ZZ=            -25.7393
   XY=             -1.9934   XZ=             -0.0000   YZ=             -0.0000

 Normal termination of Gaussian 16 at Sat Sep 30 10:51:07 2023.
