 Gaussian 16, Revision B.01,
 Gaussian 16:  ES64L-G16RevB.01 20-Dec-2017

 --------------------
 # b3lyp/gen opt freq
 --------------------

 ----------------------------
 n-propylamine, B3LYP/pcseg-2
 ----------------------------
 Symbolic Z-matrix:
 Charge =  0 Multiplicity = 1

 SCF Done:  E(RB3LYP) =  -174.566024105     A.U. after   12 cycles
 SCF Done:  E(RB3LYP) =  -174.566233670     A.U. after    9 cycles
 SCF Done:  E(RB3LYP) =  -174.566252283     A.U. after    8 cycles
 SCF Done:  E(RB3LYP) =  -174.566253979     A.U. after    7 cycles
 Optimization completed.
    -- Stationary point found.
 Normal termination of Gaussian 16 at Thu Jun 16 12:57:19 2022.

 ------------------------------------------------------------------
 #N Geom=AllCheck Guess=TCheck SCRF=Check GenChk RB3LYP/ChkBas Freq
 ------------------------------------------------------------------

 Structure from the checkpoint file:  "/wrk/irikura/Gau-13251.chk"
 ----------------------------
 n-propylamine, B3LYP/pcseg-2
 ----------------------------
 Charge =  0 Multiplicity = 1

                         Standard orientation:
 ---------------------------------------------------------------------
 Center     Atomic      Atomic             Coordinates (Angstroms)
 Number     Number       Type             X           Y           Z
 ---------------------------------------------------------------------
      1          6           0        1.426339    1.299414    0.000000
      2          6           0        0.000000    0.751065    0.000000
      3          6           0       -0.052546   -0.780049    0.000000
      4          7           0       -1.385120   -1.382875    0.000000
      5          1           0        1.435511    2.389772    0.000000
      6          1           0        1.978086    0.964273    0.880544
      7          1           0        1.978086    0.964273   -0.880544
      8          1           0       -0.540185    1.124543    0.875509
      9          1           0       -0.540185    1.124543   -0.875509
     10          1           0        0.484443   -1.160359   -0.873043
     11          1           0        0.484443   -1.160359    0.873043
     12          1           0       -1.913563   -1.094570   -0.814063
     13          1           0       -1.913563   -1.094570    0.814063
 ---------------------------------------------------------------------

 SCF Done:  E(RB3LYP) =  -174.566253979     A.U. after    1 cycles

 The electronic state is 1-A'.
 Alpha  occ. eigenvalues --  -14.29199 -10.19003 -10.16592 -10.16144  -0.88137
 Alpha  occ. eigenvalues --   -0.76973  -0.66257  -0.59285  -0.50338  -0.45122
 Alpha  occ. eigenvalues --   -0.44450  -0.40961  -0.37610  -0.37210  -0.34927
 Alpha  occ. eigenvalues --   -0.33306  -0.24059
 Alpha virt. eigenvalues --    0.01132   0.02483   0.04151   0.04734   0.07453
 Alpha virt. eigenvalues --    0.08900   0.09322   0.09634   0.12385   0.13031
 Alpha virt. eigenvalues --    0.15511   0.17927   0.18806   0.19705   0.22179

 Mulliken charges:
               1
     1  C   -0.067749
     2  C   -0.022325
     3  C    0.117914
     4  N   -0.327734
     5  H    0.033331
     6  H    0.018477
     7  H    0.018477
     8  H   -0.000551
     9  H   -0.000551
    10  H    0.019872
    11  H    0.019872
    12  H    0.095483
    13  H    0.095483
 Sum of Mulliken charges =  -0.00000

 Dipole moment (field-independent basis, Debye):
    X=             -0.1497    Y=              1.3564    Z=              0.0000  Tot=              1.3646
 Quadrupole moment (field-independent basis, Debye-Ang):
   XX=            -26.6929   YY=            -33.0947   ZZ=            -25.9627
   XY=             -1.8229   XZ=             -0.0000   YZ=             -0.0000

  Exact polarizability:  51.749   4.619  49.977  -0.000   0.000  43.904
 Approx polarizability:  65.546   0.435  62.612  -0.000  -0.000  63.852

                      1                      2                      3
                     A"                     A"                     A'
 Frequencies --    131.3434               220.3252               266.1004
 Red. masses --      2.0093                 1.0863                 2.4925
 Frc consts  --      0.0204                 0.0311                 0.1040
 IR Inten    --      0.1276                 8.3150                 4.0064

                      4                      5                      6
                     A"                     A'                     A"
 Frequencies --    271.8875               444.3411               746.4088
 Red. masses --      1.0979                 2.9061                 1.0785
 Frc consts  --      0.0478                 0.3381                 0.3540
 IR Inten    --     36.2684                 3.0826                 1.9818

                      7                      8                      9
                     A'                     A"                     A'
 Frequencies --    814.4581               860.6008               903.3410
 Red. masses --      1.6037                 1.1466                 1.5810
 Frc consts  --      0.6268                 0.5003                 0.7601
 IR Inten    --    135.5428                 0.9703                68.6120

                     10                     11                     12
                     A'                     A"                     A'
 Frequencies --   1023.9716              1033.6004              1080.4591
 Red. masses --      3.3473                 1.1009                 2.9755
 Frc consts  --      2.0679                 0.6930                 2.0466
 IR Inten    --      0.3664                 0.0121                17.2645

                     13                     14                     15
                     A'                     A"                     A"
 Frequencies --   1133.6634              1242.2066              1323.5696
 Red. masses --      2.2928                 1.5229                 1.1577
 Frc consts  --      1.7362                 1.3846                 1.1949
 IR Inten    --      2.2469                 0.0015                 0.5275

                     16                     17                     18
                     A'                     A"                     A'
 Frequencies --   1330.5236              1384.3270              1394.9807
 Red. masses --      1.3215                 1.1699                 1.3824
 Frc consts  --      1.3783                 1.3210                 1.5850
 IR Inten    --      5.9278                 0.1213                 4.0175

                     19                     20                     21
                     A'                     A'                     A'
 Frequencies --   1413.8091              1483.5603              1495.0362
 Red. masses --      1.2230                 1.0708                 1.0620
 Frc consts  --      1.4403                 1.3885                 1.3986
 IR Inten    --      4.1191                 0.0225                 1.1201

                     22                     23                     24
                     A"                     A'                     A'
 Frequencies --   1499.4424              1509.7404              1660.0367
 Red. masses --      1.0393                 1.0851                 1.0877
 Frc consts  --      1.3768                 1.4572                 1.7661
 IR Inten    --      7.4260                 5.9904                25.2001

                     25                     26                     27
                     A'                     A'                     A'
 Frequencies --   3004.7509              3018.5144              3026.0327
 Red. masses --      1.0582                 1.0566                 1.0380
 Frc consts  --      5.6292                 5.6724                 5.6002
 IR Inten    --     13.9801                37.1702                53.4136

                     28                     29                     30
                     A"                     A"                     A"
 Frequencies --   3026.1983              3056.8251              3084.0544
 Red. masses --      1.1016                 1.1064                 1.1025
 Frc consts  --      5.9440                 6.0913                 6.1782
 IR Inten    --      2.1456                32.1743                64.0331

                     31                     32                     33
                     A'                     A'                     A"
 Frequencies --   3091.4914              3491.2502              3569.4246
 Red. masses --      1.1008                 1.0484                 1.0935
 Frc consts  --      6.1987                 7.5287                 8.2087
 IR Inten    --     35.3601                 1.1387                 0.4913

 - Thermochemistry -
 -------------------
 Temperature   298.150 Kelvin.  Pressure   1.00000 Atm.
 Atom     1 has atomic number  6 and mass  12.00000

 Molecular mass:    59.07350 amu.
 Principal axes and moments of inertia in atomic units:
                           1         2         3
     Eigenvalues --    72.24077 491.95380 521.48476
           X            0.68676   0.72688   0.00000
           Y            0.72688  -0.68676   0.00000
           Z            0.00000  -0.00000   1.00000
 This molecule is an asymmetric top.
 Rotational symmetry number  1.
 Rotational temperatures (Kelvin)      1.19896     0.17606     0.16609
 Rotational constants (GHZ):          24.98231     3.66852     3.46077
 Zero-point vibrational energy     317227.4 (Joules/Mol)
                                   75.81916 (Kcal/Mol)
 Warning -- explicit consideration of   5 degrees of freedom as
           vibrations may cause significant error
 Vibrational temperatures:    188.97   317.00   382.86   391.19   639.31
          (Kelvin)           1073.92  1171.82  1238.21  1299.71  1473.27
                             1487.12  1554.54  1631.09  1787.26  1904.32
                             1914.33  1991.74  2007.07  2034.16  2134.51
                             2151.02  2157.36  2172.18  2388.42  4323.17
                             4342.97  4353.79  4354.02  4398.09  4437.27
                             4447.97  5023.13  5135.61

 Zero-point correction=                           0.120826 (Hartree/Particle)
 Thermal correction to Energy=                    0.126533
 Thermal correction to Enthalpy=                  0.127477
 Thermal correction to Gibbs Free Energy=         0.092928
 Sum of electronic and zero-point Energies=           -174.445428
 Sum of electronic and thermal Energies=              -174.439721
 Sum of electronic and thermal Enthalpies=            -174.438777
 Sum of electronic and thermal Free Energies=         -174.473326

                     E (Thermal)             CV                S
                      KCal/Mol        Cal/Mol-Kelvin    Cal/Mol-Kelvin
 Total                   79.401             19.309             72.714
 Electronic               0.000              0.000              0.000
 Translational            0.889              2.981             38.149
 Rotational               0.889              2.981             24.431
 Vibrational             77.623             13.347             10.134
 Vibration     1          0.612              1.922              2.926
 Vibration     2          0.647              1.810              1.956
 Vibration     3          0.672              1.735              1.621
 Vibration     4          0.675              1.725              1.584
 Vibration     5          0.804              1.373              0.813

 Optimization completed.
    -- Stationary point found.
 Normal termination of Gaussian 16 at Thu Jun 16 12:59:36 2022.
