 Gaussian 16, Revision B.01,
 Gaussian 16:  ES64L-G16RevB.01 20-Dec-2017

 --------------------
 # b3lyp/gen opt freq
 --------------------

 -------------------------
 1-propanol, B3LYP/pcseg-2
 -------------------------
 Symbolic Z-matrix:
 Charge =  0 Multiplicity = 1

 SCF Done:  E(RB3LYP) =  -194.441853281     A.U. after   12 cycles
 SCF Done:  E(RB3LYP) =  -194.442053645     A.U. after    9 cycles
 SCF Done:  E(RB3LYP) =  -194.442066667     A.U. after    7 cycles
 SCF Done:  E(RB3LYP) =  -194.442068822     A.U. after    7 cycles
 SCF Done:  E(RB3LYP) =  -194.442069349     A.U. after    7 cycles
 SCF Done:  E(RB3LYP) =  -194.442069597     A.U. after    6 cycles
 SCF Done:  E(RB3LYP) =  -194.442069855     A.U. after    7 cycles
 SCF Done:  E(RB3LYP) =  -194.442069953     A.U. after    6 cycles
 Optimization completed.
    -- Stationary point found.
 Normal termination of Gaussian 16 at Wed Jun 15 21:07:44 2022.

 ------------------------------------------------------------------
 #N Geom=AllCheck Guess=TCheck SCRF=Check GenChk RB3LYP/ChkBas Freq
 ------------------------------------------------------------------

 Structure from the checkpoint file:  "/wrk/irikura/Gau-25386.chk"
 -------------------------
 1-propanol, B3LYP/pcseg-2
 -------------------------
 Charge =  0 Multiplicity = 1

                         Standard orientation:
 ---------------------------------------------------------------------
 Center     Atomic      Atomic             Coordinates (Angstroms)
 Number     Number       Type             X           Y           Z
 ---------------------------------------------------------------------
      1          6           0       -1.551306   -0.512956    0.127854
      2          6           0       -0.634275    0.634423   -0.291935
      3          6           0        0.763530    0.542740    0.295276
      4          8           0        1.398874   -0.630569   -0.215973
      5          1           0       -2.539964   -0.408124   -0.320349
      6          1           0       -1.679278   -0.536383    1.212369
      7          1           0       -1.139851   -1.472930   -0.180461
      8          1           0       -0.548473    0.665815   -1.380926
      9          1           0       -1.065198    1.590856    0.016459
     10          1           0        0.705680    0.498678    1.389969
     11          1           0        1.338922    1.435093    0.024597
     12          1           0        2.269473   -0.713697    0.178956
 ---------------------------------------------------------------------

 SCF Done:  E(RB3LYP) =  -194.442069953     A.U. after    1 cycles

 The electronic state is 1-A.
 Alpha  occ. eigenvalues --  -19.12199 -10.21673 -10.16605 -10.15357  -1.02060
 Alpha  occ. eigenvalues --   -0.77872  -0.67763  -0.58445  -0.52357  -0.46711
 Alpha  occ. eigenvalues --   -0.42502  -0.42108  -0.37635  -0.35411  -0.34245
 Alpha  occ. eigenvalues --   -0.32707  -0.27913
 Alpha virt. eigenvalues --    0.00781   0.03273   0.04560   0.05118   0.07729
 Alpha virt. eigenvalues --    0.08413   0.09937   0.11117   0.12733   0.15172
 Alpha virt. eigenvalues --    0.17423   0.18418   0.20114   0.20601   0.24333

 Mulliken charges:
               1
     1  C   -0.082914
     2  C    0.008574
     3  C    0.174357
     4  O   -0.411609
     5  H    0.028237
     6  H    0.011869
     7  H    0.044413
     8  H    0.020414
     9  H    0.008197
    10  H    0.003608
    11  H    0.017772
    12  H    0.177080
 Sum of Mulliken charges =  -0.00000

 Dipole moment (field-independent basis, Debye):
    X=              0.6348    Y=              0.9941    Z=              0.9929  Tot=              1.5418
 Quadrupole moment (field-independent basis, Debye-Ang):
   XX=            -23.3326   YY=            -27.6361   ZZ=            -27.2268
   XY=             -0.0930   XZ=              2.0554   YZ=             -0.5838

  Exact polarizability:  47.685   0.589  43.009   0.691   0.018  40.475
 Approx polarizability:  57.987  -0.989  57.431   0.711   0.923  56.524

                      1                      2                      3
                      A                      A                      A
 Frequencies --    140.6166               220.0738               240.5923
 Red. masses --      2.0197                 1.2721                 1.0900
 Frc consts  --      0.0235                 0.0363                 0.0372
 IR Inten    --      9.3103                 2.7200               108.2773

                      4                      5                      6
                      A                      A                      A
 Frequencies --    324.4001               476.5726               774.2557
 Red. masses --      1.9279                 2.1979                 1.2873
 Frc consts  --      0.1195                 0.2941                 0.4547
 IR Inten    --      5.2331                 8.5337                 0.9832

                      7                      8                      9
                      A                      A                      A
 Frequencies --    860.1828               927.3709               980.3383
 Red. masses --      2.5401                 1.2644                 2.0491
 Frc consts  --      1.1073                 0.6407                 1.1603
 IR Inten    --      1.5847                 2.6371                53.1164

                     10                     11                     12
                      A                      A                      A
 Frequencies --   1060.2402              1113.2966              1159.5927
 Red. masses --      2.3406                 1.8525                 1.7046
 Frc consts  --      1.5502                 1.3528                 1.3505
 IR Inten    --     46.1805                 6.7962                 4.7440

                     13                     14                     15
                      A                      A                      A
 Frequencies --   1243.1478              1269.9626              1323.3758
 Red. masses --      1.2472                 1.1631                 1.1460
 Frc consts  --      1.1356                 1.1052                 1.1825
 IR Inten    --     38.0026                 0.2848                15.6863

                     16                     17                     18
                      A                      A                      A
 Frequencies --   1383.4713              1410.6316              1446.5597
 Red. masses --      1.3896                 1.2849                 1.3948
 Frc consts  --      1.5671                 1.5064                 1.7196
 IR Inten    --      1.5396                 2.7624                 4.7194

                     19                     20                     21
                      A                      A                      A
 Frequencies --   1478.0597              1495.0105              1508.3514
 Red. masses --      1.0767                 1.0432                 1.0608
 Frc consts  --      1.3859                 1.3738                 1.4219
 IR Inten    --      2.3770                 7.6662                 7.5205

                     22                     23                     24
                      A                      A                      A
 Frequencies --   1519.4154              2974.2299              3002.5115
 Red. masses --      1.0837                 1.0572                 1.0991
 Frc consts  --      1.4741                 5.5102                 5.8377
 IR Inten    --      2.7269                61.3060                34.2647

                     25                     26                     27
                      A                      A                      A
 Frequencies --   3027.5674              3028.9626              3056.4937
 Red. masses --      1.0655                 1.0406                 1.0994
 Frc consts  --      5.7541                 5.6251                 6.0511
 IR Inten    --     59.6002                19.2664                23.6688

                     28                     29                     30
                      A                      A                      A
 Frequencies --   3087.4201              3111.3506              3842.7724
 Red. masses --      1.1000                 1.1007                 1.0666
 Frc consts  --      6.1777                 6.2777                 9.2801
 IR Inten    --     47.9167                24.6048                31.5824

 - Thermochemistry -
 -------------------
 Temperature   298.150 Kelvin.  Pressure   1.00000 Atm.
 Atom     1 has atomic number  6 and mass  12.00000

 Molecular mass:    60.05751 amu.
 Principal axes and moments of inertia in atomic units:
                           1         2         3
     Eigenvalues --   124.18874 357.31833 420.88281
           X            0.99937   0.03329   0.01243
           Y           -0.03293   0.99907  -0.02790
           Z           -0.01335   0.02747   0.99953
 This molecule is an asymmetric top.
 Rotational symmetry number  1.
 Rotational temperatures (Kelvin)      0.69744     0.24240     0.20579
 Rotational constants (GHZ):          14.53225     5.05079     4.28799
 Zero-point vibrational energy     284034.3 (Joules/Mol)
                                   67.88583 (Kcal/Mol)
 Warning -- explicit consideration of   5 degrees of freedom as
           vibrations may cause significant error
 Vibrational temperatures:    202.32   316.64   346.16   466.74   685.68
          (Kelvin)           1113.98  1237.61  1334.28  1410.49  1525.45
                             1601.79  1668.40  1788.61  1827.19  1904.04
                             1990.51  2029.58  2081.28  2126.60  2150.99
                             2170.18  2186.10  4279.25  4319.94  4355.99
                             4358.00  4397.61  4442.11  4476.54  5528.89

 Zero-point correction=                           0.108183 (Hartree/Particle)
 Thermal correction to Energy=                    0.113725
 Thermal correction to Enthalpy=                  0.114669
 Thermal correction to Gibbs Free Energy=         0.080372
 Sum of electronic and zero-point Energies=           -194.333887
 Sum of electronic and thermal Energies=              -194.328345
 Sum of electronic and thermal Enthalpies=            -194.327401
 Sum of electronic and thermal Free Energies=         -194.361698

                     E (Thermal)             CV                S
                      KCal/Mol        Cal/Mol-Kelvin    Cal/Mol-Kelvin
 Total                   71.364             18.407             72.186
 Electronic               0.000              0.000              0.000
 Translational            0.889              2.981             38.198
 Rotational               0.889              2.981             24.439
 Vibrational             69.586             12.445              9.549
 Vibration     1          0.615              1.913              2.795
 Vibration     2          0.647              1.811              1.958
 Vibration     3          0.658              1.778              1.798
 Vibration     4          0.709              1.627              1.288
 Vibration     5          0.833              1.302              0.719

 Optimization completed.
    -- Stationary point found.
 Normal termination of Gaussian 16 at Wed Jun 15 21:10:11 2022.
