 Gaussian 16, Revision B.01,

 ---------------------------------------
 # b3lyp/gen opt freq CPHF(Grid=OneStep)
 ---------------------------------------

 -------------------------
 1-propanol, B3LYP/pcseg-2
 -------------------------
 Symbolic Z-matrix:
 Charge =  0 Multiplicity = 1

 SCF Done:  E(RB3LYP) =  -194.442069954     A.U. after   12 cycles
 Optimization completed.
    -- Stationary point found.
 Normal termination of Gaussian 16 at Fri Sep 29 18:35:23 2023.

 ------------------------------------------------------------------
 #N Geom=AllCheck Guess=TCheck SCRF=Check GenChk RB3LYP/ChkBas Freq
 ------------------------------------------------------------------

 Structure from the checkpoint file:  "proh.chk"
 -------------------------
 1-propanol, B3LYP/pcseg-2
 -------------------------
 Charge =  0 Multiplicity = 1

 SCF Done:  E(RB3LYP) =  -194.442069954     A.U. after    1 cycles

  Exact polarizability:  47.685   0.590  43.009   0.691   0.018  40.475
 Approx polarizability:  57.987  -0.989  57.431   0.711   0.923  56.524

                      1                      2                      3
                      A                      A                      A
 Frequencies --    140.6143               220.0681               240.5986
 Red. masses --      2.0197                 1.2721                 1.0900
 Frc consts  --      0.0235                 0.0363                 0.0372
 IR Inten    --      9.3100                 2.7261               108.2707

                      4                      5                      6
                      A                      A                      A
 Frequencies --    324.3990               476.5706               774.2497
 Red. masses --      1.9280                 2.1979                 1.2873
 Frc consts  --      0.1195                 0.2941                 0.4547
 IR Inten    --      5.2291                 8.5336                 0.9829

                      7                      8                      9
                      A                      A                      A
 Frequencies --    860.1807               927.3668               980.3382
 Red. masses --      2.5401                 1.2644                 2.0490
 Frc consts  --      1.1073                 0.6407                 1.1602
 IR Inten    --      1.5845                 2.6373                53.1155

                     10                     11                     12
                      A                      A                      A
 Frequencies --   1060.2359              1113.2955              1159.5926
 Red. masses --      2.3405                 1.8526                 1.7046
 Frc consts  --      1.5501                 1.3528                 1.3505
 IR Inten    --     46.1774                 6.7996                 4.7444

                     13                     14                     15
                      A                      A                      A
 Frequencies --   1243.1493              1269.9641              1323.3748
 Red. masses --      1.2472                 1.1631                 1.1460
 Frc consts  --      1.1356                 1.1052                 1.1825
 IR Inten    --     38.0020                 0.2848                15.6882

                     16                     17                     18
                      A                      A                      A
 Frequencies --   1383.4712              1410.6315              1446.5607
 Red. masses --      1.3896                 1.2849                 1.3948
 Frc consts  --      1.5671                 1.5064                 1.7196
 IR Inten    --      1.5394                 2.7622                 4.7186

                     19                     20                     21
                      A                      A                      A
 Frequencies --   1478.0567              1495.0107              1508.3474
 Red. masses --      1.0767                 1.0432                 1.0608
 Frc consts  --      1.3859                 1.3738                 1.4219
 IR Inten    --      2.3776                 7.6665                 7.5221

                     22                     23                     24
                      A                      A                      A
 Frequencies --   1519.4160              2974.2300              3002.5097
 Red. masses --      1.0837                 1.0572                 1.0991
 Frc consts  --      1.4740                 5.5102                 5.8377
 IR Inten    --      2.7271                61.3043                34.2649

                     25                     26                     27
                      A                      A                      A
 Frequencies --   3027.5643              3028.9667              3056.4917
 Red. masses --      1.0655                 1.0406                 1.0994
 Frc consts  --      5.7541                 5.6251                 6.0511
 IR Inten    --     59.5799                19.2864                23.6760

                     28                     29                     30
                      A                      A                      A
 Frequencies --   3087.4247              3111.3550              3842.7735
 Red. masses --      1.1000                 1.1007                 1.0666
 Frc consts  --      6.1777                 6.2777                 9.2801
 IR Inten    --     47.9151                24.6050                31.5822

 - Thermochemistry -
 -------------------
 Temperature   298.150 Kelvin.  Pressure   1.00000 Atm.
 Atom     1 has atomic number  6 and mass  12.00000

 Molecular mass:    60.05751 amu.
 Principal axes and moments of inertia in atomic units:
                           1         2         3
     Eigenvalues --   124.18871 357.31835 420.88285
           X            0.99937   0.03329   0.01243
           Y           -0.03293   0.99907  -0.02790
           Z           -0.01335   0.02747   0.99953
 This molecule is an asymmetric top.
 Rotational symmetry number  1.
 Rotational temperatures (Kelvin)      0.69744     0.24240     0.20579
 Rotational constants (GHZ):          14.53225     5.05079     4.28799
 Zero-point vibrational energy     284034.2 (Joules/Mol)
                                   67.88580 (Kcal/Mol)
 Warning -- explicit consideration of   5 degrees of freedom as
           vibrations may cause significant error
 Vibrational temperatures:    202.31   316.63   346.17   466.74   685.68
          (Kelvin)           1113.97  1237.61  1334.27  1410.49  1525.44
                             1601.78  1668.40  1788.61  1827.20  1904.04
                             1990.51  2029.58  2081.28  2126.59  2150.99
                             2170.18  2186.10  4279.25  4319.94  4355.99
                             4358.01  4397.61  4442.12  4476.55  5528.89

 Zero-point correction=                           0.108183 (Hartree/Particle)
 Thermal correction to Energy=                    0.113725
 Thermal correction to Enthalpy=                  0.114669
 Thermal correction to Gibbs Free Energy=         0.080372
 Sum of electronic and zero-point Energies=           -194.333887
 Sum of electronic and thermal Energies=              -194.328345
 Sum of electronic and thermal Enthalpies=            -194.327401
 Sum of electronic and thermal Free Energies=         -194.361698

                     E (Thermal)             CV                S
                      KCal/Mol        Cal/Mol-Kelvin    Cal/Mol-Kelvin
 Total                   71.364             18.407             72.186
 Electronic               0.000              0.000              0.000
 Translational            0.889              2.981             38.198
 Rotational               0.889              2.981             24.439
 Vibrational             69.586             12.445              9.549
 Vibration     1          0.615              1.913              2.795
 Vibration     2          0.647              1.811              1.959
 Vibration     3          0.658              1.778              1.798
 Vibration     4          0.709              1.627              1.288
 Vibration     5          0.833              1.302              0.719

 Optimization completed.
    -- Stationary point found.
 Normal termination of Gaussian 16 at Fri Sep 29 18:43:57 2023.
 Gaussian 16:  ES64L-G16RevB.01 20-Dec-2017

 ---------------------------------
 # rohf/gen geom=check guess=check
 ---------------------------------

 ----------------------------
 1-propanol, ROHF/cc-pVTZ-F12
 ----------------------------
 Structure from the checkpoint file:  "proh.chk"
 Charge =  0 Multiplicity = 1

                         Standard orientation:
 ---------------------------------------------------------------------
 Center     Atomic      Atomic             Coordinates (Angstroms)
 Number     Number       Type             X           Y           Z
 ---------------------------------------------------------------------
      1          6           0       -1.551306   -0.512956    0.127854
      2          6           0       -0.634275    0.634423   -0.291935
      3          6           0        0.763530    0.542740    0.295276
      4          8           0        1.398874   -0.630569   -0.215973
      5          1           0       -2.539964   -0.408124   -0.320349
      6          1           0       -1.679278   -0.536383    1.212369
      7          1           0       -1.139851   -1.472930   -0.180461
      8          1           0       -0.548473    0.665815   -1.380926
      9          1           0       -1.065198    1.590856    0.016459
     10          1           0        0.705680    0.498678    1.389969
     11          1           0        1.338922    1.435093    0.024597
     12          1           0        2.269473   -0.713697    0.178956
 ---------------------------------------------------------------------

 SCF Done:  E(ROHF) =  -193.203645910     A.U. after   10 cycles

 The electronic state is 1-A.
 Alpha  occ. eigenvalues --  -20.55209 -11.27182 -11.21661 -11.20468  -1.35422
 Alpha  occ. eigenvalues --   -1.04700  -0.91752  -0.79644  -0.70107  -0.64087
 Alpha  occ. eigenvalues --   -0.58452  -0.57963  -0.53732  -0.49976  -0.48244
 Alpha  occ. eigenvalues --   -0.46812  -0.44042
 Alpha virt. eigenvalues --    0.04606   0.05385   0.05521   0.06976   0.08510
 Alpha virt. eigenvalues --    0.09243   0.09520   0.10190   0.11380   0.12727
 Alpha virt. eigenvalues --    0.17195   0.17432   0.18086   0.19212   0.20250

 Mulliken charges and spin densities:
               1          2
     1  C   -0.292276   0.000000
     2  C   -0.116201   0.000000
     3  C    0.162438   0.000000
     4  O   -0.745039   0.000000
     5  H    0.082448   0.000000
     6  H    0.075690   0.000000
     7  H    0.111603   0.000000
     8  H    0.092497   0.000000
     9  H    0.077479   0.000000
    10  H    0.066921   0.000000
    11  H    0.074451   0.000000
    12  H    0.409990   0.000000
 Sum of Mulliken charges =  -0.00000   0.00000

 Dipole moment (field-independent basis, Debye):
    X=              0.6247    Y=              1.0801    Z=              1.0579  Tot=              1.6359
 Quadrupole moment (field-independent basis, Debye-Ang):
   XX=            -23.1498   YY=            -27.4400   ZZ=            -26.9486
   XY=              0.0409   XZ=              2.1487   YZ=             -0.6006

 Normal termination of Gaussian 16 at Fri Sep 29 18:46:38 2023.
