 Gaussian 16, Revision B.01,

 ---------------------------------------
 # b3lyp/gen opt freq CPHF(Grid=OneStep)
 ---------------------------------------

 -----------------------------
 propyl nitrite, B3LYP/pcseg-2
 -----------------------------
 Symbolic Z-matrix:
 Charge =  0 Multiplicity = 1

 SCF Done:  E(RB3LYP) =  -323.776199940     A.U. after   13 cycles
 Optimization completed.
    -- Stationary point found.
 Normal termination of Gaussian 16 at Fri Sep 29 13:18:22 2023.

 ------------------------------------------------------------------
 #N Geom=AllCheck Guess=TCheck SCRF=Check GenChk RB3LYP/ChkBas Freq
 ------------------------------------------------------------------

 Structure from the checkpoint file:  "prono.chk"
 -----------------------------
 propyl nitrite, B3LYP/pcseg-2
 -----------------------------
 Charge =  0 Multiplicity = 1

 SCF Done:  E(RB3LYP) =  -323.776199940     A.U. after    1 cycles

  Exact polarizability:  69.690   0.442  49.569   2.678   1.113  45.696
 Approx polarizability:  92.890   4.047  72.901   9.030   6.298  68.700

                      1                      2                      3
                      A                      A                      A
 Frequencies --     58.7820               125.3947               194.6894
 Red. masses --      5.3820                 2.4839                 1.4323
 Frc consts  --      0.0110                 0.0230                 0.0320
 IR Inten    --      0.1201                 0.8626                 0.0773

                      4                      5                      6
                      A                      A                      A
 Frequencies --    269.6441               292.9638               367.6000
 Red. masses --      3.0339                 2.3930                 4.4491
 Frc consts  --      0.1300                 0.1210                 0.3542
 IR Inten    --      1.0109                 0.4415                 1.6012

                      7                      8                      9
                      A                      A                      A
 Frequencies --    447.0273               721.8138               761.5380
 Red. masses --      2.4540                 4.1155                 1.8598
 Frc consts  --      0.2889                 1.2634                 0.6355
 IR Inten    --      5.0071               183.2394                 1.3288

                     10                     11                     12
                      A                      A                      A
 Frequencies --    844.7346               892.7102               928.5158
 Red. masses --      2.9936                 2.3674                 1.3024
 Frc consts  --      1.2586                 1.1116                 0.6616
 IR Inten    --    112.8485                 3.1710                 0.3988

                     13                     14                     15
                      A                      A                      A
 Frequencies --    967.5872              1060.4770              1128.1812
 Red. masses --      4.0619                 2.0732                 2.0713
 Frc consts  --      2.2406                 1.3737                 1.5533
 IR Inten    --    126.3107                 3.7410                 1.1129

                     16                     17                     18
                      A                      A                      A
 Frequencies --   1167.9463              1262.6813              1307.5825
 Red. masses --      1.8039                 1.1682                 1.1745
 Frc consts  --      1.4498                 1.0974                 1.1831
 IR Inten    --      1.6726                 2.1933                 0.8907

                     19                     20                     21
                      A                      A                      A
 Frequencies --   1378.5155              1394.4659              1420.3247
 Red. masses --      1.3156                 1.4898                 1.2425
 Frc consts  --      1.4729                 1.7068                 1.4767
 IR Inten    --     11.9561                 1.2527                 7.0030

                     22                     23                     24
                      A                      A                      A
 Frequencies --   1482.4225              1494.1530              1503.7968
 Red. masses --      1.0715                 1.0598                 1.0624
 Frc consts  --      1.3873                 1.3940                 1.4156
 IR Inten    --      1.9678                 6.0497                 9.0894

                     25                     26                     27
                      A                      A                      A
 Frequencies --   1508.4219              1674.0683              3028.5772
 Red. masses --      1.0573                13.8200                 1.0613
 Frc consts  --      1.4174                22.8194                 5.7354
 IR Inten    --      7.4015               206.6950                15.3280

                     28                     29                     30
                      A                      A                      A
 Frequencies --   3033.3241              3036.9122              3061.7604
 Red. masses --      1.0385                 1.0595                 1.0973
 Frc consts  --      5.6297                 5.7574                 6.0604
 IR Inten    --     23.8932                11.5830                10.9473

                     31                     32                     33
                      A                      A                      A
 Frequencies --   3082.2452              3095.2647              3110.2175
 Red. masses --      1.1064                 1.1006                 1.1019
 Frc consts  --      6.1927                 6.2124                 6.2803
 IR Inten    --     22.7629                42.3458                23.9491

 - Thermochemistry -
 -------------------
 Temperature   298.150 Kelvin.  Pressure   1.00000 Atm.
 Atom     1 has atomic number  6 and mass  12.00000

 Molecular mass:    89.04768 amu.
 Principal axes and moments of inertia in atomic units:
                           1         2         3
     Eigenvalues --   169.435031004.729561068.95574
           X            0.99993   0.00931  -0.00676
           Y           -0.00981   0.99690  -0.07801
           Z            0.00601   0.07808   0.99693
 This molecule is an asymmetric top.
 Rotational symmetry number  1.
 Rotational temperatures (Kelvin)      0.51119     0.08621     0.08103
 Rotational constants (GHZ):          10.65152     1.79625     1.68832
 Zero-point vibrational energy     275765.2 (Joules/Mol)
                                   65.90946 (Kcal/Mol)
 Warning -- explicit consideration of   7 degrees of freedom as
           vibrations may cause significant error
 Vibrational temperatures:     84.57   180.42   280.11   387.96   421.51
          (Kelvin)            528.89   643.17  1038.53  1095.68  1215.38
                             1284.41  1335.93  1392.14  1525.79  1623.20
                             1680.41  1816.72  1881.32  1983.38  2006.33
                             2043.53  2132.88  2149.75  2163.63  2170.28
                             2408.61  4357.45  4364.28  4369.44  4405.19
                             4434.66  4453.40  4474.91

 Zero-point correction=                           0.105033 (Hartree/Particle)
 Thermal correction to Energy=                    0.111982
 Thermal correction to Enthalpy=                  0.112926
 Thermal correction to Gibbs Free Energy=         0.073902
 Sum of electronic and zero-point Energies=           -323.671167
 Sum of electronic and thermal Energies=              -323.664218
 Sum of electronic and thermal Enthalpies=            -323.663274
 Sum of electronic and thermal Free Energies=         -323.702298

                     E (Thermal)             CV                S
                      KCal/Mol        Cal/Mol-Kelvin    Cal/Mol-Kelvin
 Total                   70.270             23.278             82.132
 Electronic               0.000              0.000              0.000
 Translational            0.889              2.981             39.372
 Rotational               0.889              2.981             26.701
 Vibrational             68.492             17.317             16.059
 Vibration     1          0.596              1.974              4.498
 Vibration     2          0.610              1.928              3.015
 Vibration     3          0.635              1.847              2.183
 Vibration     4          0.674              1.729              1.598
 Vibration     5          0.688              1.687              1.457
 Vibration     6          0.740              1.539              1.090
 Vibration     7          0.806              1.367              0.805

 Optimization completed.
    -- Stationary point found.
 Normal termination of Gaussian 16 at Fri Sep 29 13:34:16 2023.
 Gaussian 16:  ES64L-G16RevB.01 20-Dec-2017

 ---------------------------------
 # rohf/gen geom=check guess=check
 ---------------------------------

 --------------------------------
 propyl nitrite, ROHF/cc-pVTZ-F12
 --------------------------------
 Structure from the checkpoint file:  "prono.chk"
 Charge =  0 Multiplicity = 1

                         Standard orientation:
 ---------------------------------------------------------------------
 Center     Atomic      Atomic             Coordinates (Angstroms)
 Number     Number       Type             X           Y           Z
 ---------------------------------------------------------------------
      1          6           0       -0.157263    0.685671    0.056304
      2          8           0        0.510722   -0.497019   -0.443792
      3          7           0        1.876988   -0.602747   -0.188319
      4          6           0       -1.624058    0.577718   -0.318432
      5          1           0        0.312017    1.565393   -0.386666
      6          1           0       -0.016337    0.738142    1.137902
      7          6           0       -2.355350   -0.576775    0.364241
      8          1           0       -2.093395    1.527700   -0.049235
      9          1           0       -1.705781    0.488726   -1.403764
     10          1           0       -3.406902   -0.592421    0.077434
     11          1           0       -1.918785   -1.536803    0.091272
     12          1           0       -2.308757   -0.483807    1.451106
     13          8           0        2.341660    0.296096    0.417231
 ---------------------------------------------------------------------

 SCF Done:  E(ROHF) =  -321.881480220     A.U. after   13 cycles

 The electronic state is 1-A.
 Alpha  occ. eigenvalues --  -20.64432 -20.62557 -15.78011 -11.29388 -11.23687
 Alpha  occ. eigenvalues --  -11.21962  -1.59350  -1.39645  -1.08137  -0.98102
 Alpha  occ. eigenvalues --   -0.89349  -0.81484  -0.76088  -0.71354  -0.70184
 Alpha  occ. eigenvalues --   -0.62694  -0.60832  -0.58686  -0.55604  -0.51659
 Alpha  occ. eigenvalues --   -0.50612  -0.49488  -0.47339  -0.44919
 Alpha virt. eigenvalues --    0.04670   0.04834   0.05628   0.06524   0.08299
 Alpha virt. eigenvalues --    0.08850   0.09148   0.09313   0.09939   0.10666
 Alpha virt. eigenvalues --    0.12376   0.13328   0.13484   0.15016   0.16538

 Mulliken charges and spin densities:
               1          2
     1  C    0.091952   0.000000
     2  O   -0.333888   0.000000
     3  N    0.267505   0.000000
     4  C   -0.123178   0.000000
     5  H    0.114988   0.000000
     6  H    0.110761   0.000000
     7  C   -0.293480   0.000000
     8  H    0.090595   0.000000
     9  H    0.095727   0.000000
    10  H    0.091535   0.000000
    11  H    0.105850   0.000000
    12  H    0.080316   0.000000
    13  O   -0.298681   0.000000
 Sum of Mulliken charges =  -0.00000   0.00000

 Dipole moment (field-independent basis, Debye):
    X=             -1.9870    Y=              1.1771    Z=              0.2218  Tot=              2.3201
 Quadrupole moment (field-independent basis, Debye-Ang):
   XX=            -39.5719   YY=            -36.7042   ZZ=            -36.1895
   XY=             -0.4954   XZ=             -0.5983   YZ=             -1.0975

 Normal termination of Gaussian 16 at Fri Sep 29 13:41:19 2023.
