 Gaussian 16, Revision B.01,
 Gaussian 16:  ES64L-G16RevB.01 20-Dec-2017

 --------------------
 # b3lyp/gen opt freq
 --------------------

 -----------------------------
 propyl nitrite, B3LYP/pcseg-2
 -----------------------------
 Symbolic Z-matrix:
 Charge =  0 Multiplicity = 1

 SCF Done:  E(RB3LYP) =  -323.776017557     A.U. after   13 cycles
 SCF Done:  E(RB3LYP) =  -323.776173048     A.U. after   12 cycles
 SCF Done:  E(RB3LYP) =  -323.776186122     A.U. after   10 cycles
 SCF Done:  E(RB3LYP) =  -323.776198463     A.U. after    9 cycles
 SCF Done:  E(RB3LYP) =  -323.776199180     A.U. after    9 cycles
 SCF Done:  E(RB3LYP) =  -323.776199940     A.U. after    8 cycles
 Optimization completed.
    -- Stationary point found.
 Normal termination of Gaussian 16 at Mon Jun 20 11:20:58 2022.

 ------------------------------------------------------------------
 #N Geom=AllCheck Guess=TCheck SCRF=Check GenChk RB3LYP/ChkBas Freq
 ------------------------------------------------------------------

 Structure from the checkpoint file:  "/wrk/irikura/Gau-13483.chk"
 -----------------------------
 propyl nitrite, B3LYP/pcseg-2
 -----------------------------
 Charge =  0 Multiplicity = 1

                         Standard orientation:
 ---------------------------------------------------------------------
 Center     Atomic      Atomic             Coordinates (Angstroms)
 Number     Number       Type             X           Y           Z
 ---------------------------------------------------------------------
      1          6           0       -0.157263    0.685671    0.056304
      2          8           0        0.510722   -0.497019   -0.443792
      3          7           0        1.876988   -0.602747   -0.188319
      4          6           0       -1.624058    0.577718   -0.318432
      5          1           0        0.312017    1.565393   -0.386666
      6          1           0       -0.016337    0.738142    1.137902
      7          6           0       -2.355350   -0.576775    0.364241
      8          1           0       -2.093395    1.527700   -0.049235
      9          1           0       -1.705781    0.488726   -1.403764
     10          1           0       -3.406902   -0.592421    0.077434
     11          1           0       -1.918785   -1.536803    0.091272
     12          1           0       -2.308757   -0.483807    1.451106
     13          8           0        2.341660    0.296096    0.417231
 ---------------------------------------------------------------------

 SCF Done:  E(RB3LYP) =  -323.776199940     A.U. after    1 cycles

 The electronic state is 1-A.
 Alpha  occ. eigenvalues --  -19.20025 -19.19754 -14.49536 -10.24007 -10.18816
 Alpha  occ. eigenvalues --  -10.16994  -1.22974  -1.06293  -0.81429  -0.73303
 Alpha  occ. eigenvalues --   -0.65627  -0.59832  -0.56410  -0.52691  -0.50472
 Alpha  occ. eigenvalues --   -0.47054  -0.45062  -0.42979  -0.39254  -0.37326
 Alpha  occ. eigenvalues --   -0.36592  -0.35582  -0.33010  -0.28579
 Alpha virt. eigenvalues --   -0.08295   0.00943   0.03506   0.04093   0.05820
 Alpha virt. eigenvalues --    0.07488   0.08109   0.08953   0.10112   0.13009
 Alpha virt. eigenvalues --    0.13576   0.16214   0.16890   0.18656   0.19216

 Mulliken charges:
               1
     1  C    0.127828
     2  O   -0.249848
     3  N    0.202524
     4  C    0.001442
     5  H    0.049123
     6  H    0.043403
     7  C   -0.080570
     8  H    0.020484
     9  H    0.030426
    10  H    0.035634
    11  H    0.045868
    12  H    0.019539
    13  O   -0.245854
 Sum of Mulliken charges =  -0.00000

 Dipole moment (field-independent basis, Debye):
    X=             -2.2047    Y=              1.2722    Z=              0.2277  Tot=              2.5556
 Quadrupole moment (field-independent basis, Debye-Ang):
   XX=            -39.9910   YY=            -37.0401   ZZ=            -36.3661
   XY=             -0.1717   XZ=             -0.4701   YZ=             -1.1674

  Exact polarizability:  69.690   0.442  49.569   2.678   1.113  45.697
 Approx polarizability:  92.890   4.047  72.901   9.030   6.298  68.700

                      1                      2                      3
                      A                      A                      A
 Frequencies --     58.7833               125.3942               194.6907
 Red. masses --      5.3821                 2.4839                 1.4322
 Frc consts  --      0.0110                 0.0230                 0.0320
 IR Inten    --      0.1201                 0.8626                 0.0772

                      4                      5                      6
                      A                      A                      A
 Frequencies --    269.6448               292.9653               367.5997
 Red. masses --      3.0339                 2.3930                 4.4491
 Frc consts  --      0.1300                 0.1210                 0.3542
 IR Inten    --      1.0108                 0.4416                 1.6013

                      7                      8                      9
                      A                      A                      A
 Frequencies --    447.0287               721.8117               761.5383
 Red. masses --      2.4540                 4.1156                 1.8598
 Frc consts  --      0.2889                 1.2634                 0.6355
 IR Inten    --      5.0068               183.2437                 1.3292

                     10                     11                     12
                      A                      A                      A
 Frequencies --    844.7334               892.7117               928.5146
 Red. masses --      2.9936                 2.3674                 1.3024
 Frc consts  --      1.2586                 1.1116                 0.6616
 IR Inten    --    112.8430                 3.1716                 0.3989

                     13                     14                     15
                      A                      A                      A
 Frequencies --    967.5877              1060.4766              1128.1813
 Red. masses --      4.0619                 2.0731                 2.0713
 Frc consts  --      2.2406                 1.3736                 1.5533
 IR Inten    --    126.3229                 3.7415                 1.1131

                     16                     17                     18
                      A                      A                      A
 Frequencies --   1167.9459              1262.6799              1307.5820
 Red. masses --      1.8039                 1.1683                 1.1745
 Frc consts  --      1.4498                 1.0974                 1.1831
 IR Inten    --      1.6726                 2.1935                 0.8906

                     19                     20                     21
                      A                      A                      A
 Frequencies --   1378.5112              1394.4633              1420.3224
 Red. masses --      1.3155                 1.4898                 1.2425
 Frc consts  --      1.4729                 1.7068                 1.4767
 IR Inten    --     11.9563                 1.2520                 7.0033

                     22                     23                     24
                      A                      A                      A
 Frequencies --   1482.4249              1494.1484              1503.7926
 Red. masses --      1.0715                 1.0598                 1.0624
 Frc consts  --      1.3873                 1.3940                 1.4156
 IR Inten    --      1.9678                 6.0478                 9.0908

                     25                     26                     27
                      A                      A                      A
 Frequencies --   1508.4203              1674.0637              3028.5790
 Red. masses --      1.0573                13.8197                 1.0613
 Frc consts  --      1.4174                22.8187                 5.7354
 IR Inten    --      7.4001               206.6846                15.3215

                     28                     29                     30
                      A                      A                      A
 Frequencies --   3033.3232              3036.9137              3061.7606
 Red. masses --      1.0385                 1.0595                 1.0973
 Frc consts  --      5.6297                 5.7574                 6.0604
 IR Inten    --     23.8928                11.5928                10.9420

                     31                     32                     33
                      A                      A                      A
 Frequencies --   3082.2529              3095.2651              3110.2092
 Red. masses --      1.1064                 1.1006                 1.1019
 Frc consts  --      6.1928                 6.2124                 6.2803
 IR Inten    --     22.7551                42.3483                23.9564

 - Thermochemistry -
 -------------------
 Temperature   298.150 Kelvin.  Pressure   1.00000 Atm.
 Atom     1 has atomic number  6 and mass  12.00000

 Molecular mass:    89.04768 amu.
 Principal axes and moments of inertia in atomic units:
                           1         2         3
     Eigenvalues --   169.435011004.729631068.95584
           X            0.99993   0.00931  -0.00676
           Y           -0.00981   0.99690  -0.07802
           Z            0.00601   0.07808   0.99693
 This molecule is an asymmetric top.
 Rotational symmetry number  1.
 Rotational temperatures (Kelvin)      0.51119     0.08621     0.08103
 Rotational constants (GHZ):          10.65152     1.79625     1.68832
 Zero-point vibrational energy     275765.1 (Joules/Mol)
                                   65.90943 (Kcal/Mol)
 Warning -- explicit consideration of   7 degrees of freedom as
           vibrations may cause significant error
 Vibrational temperatures:     84.58   180.41   280.12   387.96   421.51
          (Kelvin)            528.89   643.17  1038.53  1095.68  1215.38
                             1284.41  1335.93  1392.14  1525.79  1623.20
                             1680.41  1816.71  1881.32  1983.37  2006.32
                             2043.53  2132.88  2149.75  2163.62  2170.28
                             2408.60  4357.45  4364.28  4369.44  4405.19
                             4434.67  4453.40  4474.90

 Zero-point correction=                           0.105033 (Hartree/Particle)
 Thermal correction to Energy=                    0.111982
 Thermal correction to Enthalpy=                  0.112926
 Thermal correction to Gibbs Free Energy=         0.073902
 Sum of electronic and zero-point Energies=           -323.671167
 Sum of electronic and thermal Energies=              -323.664218
 Sum of electronic and thermal Enthalpies=            -323.663274
 Sum of electronic and thermal Free Energies=         -323.702298

                     E (Thermal)             CV                S
                      KCal/Mol        Cal/Mol-Kelvin    Cal/Mol-Kelvin
 Total                   70.270             23.278             82.132
 Electronic               0.000              0.000              0.000
 Translational            0.889              2.981             39.372
 Rotational               0.889              2.981             26.701
 Vibrational             68.492             17.317             16.059
 Vibration     1          0.596              1.974              4.498
 Vibration     2          0.610              1.928              3.016
 Vibration     3          0.635              1.847              2.183
 Vibration     4          0.674              1.729              1.598
 Vibration     5          0.688              1.687              1.457
 Vibration     6          0.740              1.539              1.090
 Vibration     7          0.806              1.367              0.805

 Optimization completed.
    -- Stationary point found.
 Normal termination of Gaussian 16 at Mon Jun 20 11:24:57 2022.
