 Gaussian 16, Revision B.01,

 ---------------------------------------
 # b3lyp/gen opt freq CPHF(Grid=OneStep)
 ---------------------------------------

 ----------------------
 propyne, B3LYP/pcseg-2
 ----------------------
 Symbolic Z-matrix:
 Charge =  0 Multiplicity = 1

 SCF Done:  E(RB3LYP) =  -116.707313428     A.U. after   12 cycles
 Optimization completed.
    -- Stationary point found.
 Normal termination of Gaussian 16 at Sat Sep 30 02:17:42 2023.

 ------------------------------------------------------------------
 #N Geom=AllCheck Guess=TCheck SCRF=Check GenChk RB3LYP/ChkBas Freq
 ------------------------------------------------------------------

 Structure from the checkpoint file:  "propyne.chk"
 ----------------------
 propyne, B3LYP/pcseg-2
 ----------------------
 Charge =  0 Multiplicity = 1

 SCF Done:  E(RB3LYP) =  -116.707313428     A.U. after    1 cycles

  Exact polarizability:  24.569  -0.000  24.570  -0.000  -0.000  50.604
 Approx polarizability:  32.601  -0.000  32.601   0.000   0.000  78.513

                      1                      2                      3
                      E                      E                      E
 Frequencies --    349.3288               349.3288               675.5710
 Red. masses --      2.9906                 2.9906                 1.2560
 Frc consts  --      0.2150                 0.2150                 0.3377
 IR Inten    --     10.6464                10.6464                52.9704

                      4                      5                      6
                      E                     A1                      E
 Frequencies --    675.5711               941.3083              1058.0268
 Red. masses --      1.2560                 4.1310                 1.4076
 Frc consts  --      0.3377                 2.1566                 0.9284
 IR Inten    --     52.9704                 0.3341                 0.4254

                      7                      8                      9
                      E                     A1                      E
 Frequencies --   1058.0268              1416.3167              1477.7919
 Red. masses --      1.4076                 1.2295                 1.0388
 Frc consts  --      0.9284                 1.4531                 1.3366
 IR Inten    --      0.4254                 0.0216                 8.1952

                     10                     11                     12
                      E                     A1                     A1
 Frequencies --   1477.7920              2224.2426              3031.1614
 Red. masses --      1.0388                 5.9716                 1.0340
 Frc consts  --      1.3366                17.4062                 5.5974
 IR Inten    --      8.1952                10.0915                17.1241

                     13                     14                     15
                      E                      E                     A1
 Frequencies --   3089.8082              3089.8084              3469.9708
 Red. masses --      1.1010                 1.1010                 1.1603
 Frc consts  --      6.1930                 6.1930                 8.2314
 IR Inten    --      6.8780                 6.8781                62.6771

 - Thermochemistry -
 -------------------
 Temperature   298.150 Kelvin.  Pressure   1.00000 Atm.
 Atom     1 has atomic number  6 and mass  12.00000

 Molecular mass:    40.03130 amu.
 Principal axes and moments of inertia in atomic units:
                           1         2         3
     Eigenvalues --    11.21337 209.51076 209.51076
           X            0.00000   0.97496  -0.22237
           Y            0.00000   0.22237   0.97496
           Z            1.00000   0.00000  -0.00000
 This molecule is a prolate symmetric top.
 Rotational symmetry number  3.
 Rotational temperatures (Kelvin)      7.72417     0.41341     0.41341
 Rotational constants (GHZ):         160.94552     8.61407     8.61407
 Zero-point vibrational energy     145849.0 (Joules/Mol)
                                   34.85875 (Kcal/Mol)
 Warning -- explicit consideration of   2 degrees of freedom as
           vibrations may cause significant error
 Vibrational temperatures:    502.61   502.61   972.00   972.00  1354.33
          (Kelvin)           1522.26  1522.26  2037.76  2126.21  2126.21
                             3200.19  4361.17  4445.54  4445.55  4992.51

 Zero-point correction=                           0.055551 (Hartree/Particle)
 Thermal correction to Energy=                    0.059476
 Thermal correction to Enthalpy=                  0.060420
 Thermal correction to Gibbs Free Energy=         0.032410
 Sum of electronic and zero-point Energies=           -116.651762
 Sum of electronic and thermal Energies=              -116.647837
 Sum of electronic and thermal Enthalpies=            -116.646893
 Sum of electronic and thermal Free Energies=         -116.674903

                     E (Thermal)             CV                S
                      KCal/Mol        Cal/Mol-Kelvin    Cal/Mol-Kelvin
 Total                   37.322             12.218             58.952
 Electronic               0.000              0.000              0.000
 Translational            0.889              2.981             36.989
 Rotational               0.889              2.981             18.643
 Vibrational             35.544              6.256              3.321
 Vibration     1          0.727              1.577              1.169
 Vibration     2          0.727              1.577              1.169

 Optimization completed.
    -- Stationary point found.
 Normal termination of Gaussian 16 at Sat Sep 30 02:18:59 2023.
 Gaussian 16:  ES64L-G16RevB.01 20-Dec-2017

 ---------------------------------
 # rohf/gen geom=check guess=check
 ---------------------------------

 -------------------------
 propyne, ROHF/cc-pVTZ-F12
 -------------------------
 Structure from the checkpoint file:  "propyne.chk"
 Charge =  0 Multiplicity = 1

                         Standard orientation:
 ---------------------------------------------------------------------
 Center     Atomic      Atomic             Coordinates (Angstroms)
 Number     Number       Type             X           Y           Z
 ---------------------------------------------------------------------
      1          6           0        0.000000    0.000000   -1.236659
      2          6           0        0.000000    0.000000    0.218628
      3          6           0        0.000000    0.000000    1.417881
      4          1           0        0.000000    0.000000    2.479343
      5          1           0        0.000000    1.019098   -1.626146
      6          1           0        0.882565   -0.509549   -1.626146
      7          1           0       -0.882565   -0.509549   -1.626146
 ---------------------------------------------------------------------

 SCF Done:  E(ROHF) =  -115.915847781     A.U. after   10 cycles

 The electronic state is 1-A1.
 Alpha  occ. eigenvalues --  -11.24909 -11.23323 -11.21682  -1.05892  -0.95914
 Alpha  occ. eigenvalues --   -0.71871  -0.62446  -0.59247  -0.59247  -0.38585
 Alpha  occ. eigenvalues --   -0.38585
 Alpha virt. eigenvalues --    0.04992   0.05441   0.07229   0.07229   0.08125
 Alpha virt. eigenvalues --    0.09839   0.09839   0.12552   0.13684   0.13684
 Alpha virt. eigenvalues --    0.18956   0.19284   0.19284   0.20414   0.23658

 Mulliken charges and spin densities:
               1          2
     1  C   -0.296614   0.000000
     2  C    0.005828   0.000000
     3  C   -0.277113   0.000000
     4  H    0.231441   0.000000
     5  H    0.112153   0.000000
     6  H    0.112153   0.000000
     7  H    0.112153   0.000000
 Sum of Mulliken charges =  -0.00000   0.00000

 Dipole moment (field-independent basis, Debye):
    X=             -0.0000    Y=             -0.0000    Z=             -0.7919  Tot=              0.7919
 Quadrupole moment (field-independent basis, Debye-Ang):
   XX=            -20.0060   YY=            -20.0060   ZZ=            -13.8649
   XY=              0.0000   XZ=              0.0000   YZ=              0.0000

 Normal termination of Gaussian 16 at Sat Sep 30 02:19:21 2023.
