 Gaussian 16, Revision B.01,
 Gaussian 16:  ES64L-G16RevB.01 20-Dec-2017

 --------------------
 # b3lyp/gen opt freq
 --------------------

 ----------------------
 propene, B3LYP/pcseg-2
 ----------------------
 Symbolic Z-matrix:
 Charge =  0 Multiplicity = 1

 SCF Done:  E(RB3LYP) =  -117.960593689     A.U. after   12 cycles
 SCF Done:  E(RB3LYP) =  -117.960594219     A.U. after    6 cycles
 Optimization completed.
    -- Stationary point found.
 Normal termination of Gaussian 16 at Tue Jun 14 21:22:15 2022.

 ------------------------------------------------------------------
 #N Geom=AllCheck Guess=TCheck SCRF=Check GenChk RB3LYP/ChkBas Freq
 ------------------------------------------------------------------

 Structure from the checkpoint file:  "/wrk/irikura/Gau-14419.chk"
 ----------------------
 propene, B3LYP/pcseg-2
 ----------------------
 Charge =  0 Multiplicity = 1

                         Standard orientation:
 ---------------------------------------------------------------------
 Center     Atomic      Atomic             Coordinates (Angstroms)
 Number     Number       Type             X           Y           Z
 ---------------------------------------------------------------------
      1          6           0       -1.134199   -0.504630    0.000000
      2          6           0        0.000000    0.471977    0.000000
      3          6           0        1.287772    0.151634    0.000000
      4          1           0        1.615663   -0.881198    0.000000
      5          1           0        2.060770    0.908157    0.000000
      6          1           0       -0.276807    1.522343    0.000000
      7          1           0       -0.776099   -1.534045    0.000000
      8          1           0       -1.772482   -0.364573    0.876136
      9          1           0       -1.772482   -0.364573   -0.876136
 ---------------------------------------------------------------------

 SCF Done:  E(RB3LYP) =  -117.960594219     A.U. after    1 cycles

 The electronic state is 1-A'.
 Alpha  occ. eigenvalues --  -10.17629 -10.16830 -10.16102  -0.79013  -0.68895
 Alpha  occ. eigenvalues --   -0.55727  -0.47152  -0.42640  -0.41707  -0.37661
 Alpha  occ. eigenvalues --   -0.34979  -0.26354
 Alpha virt. eigenvalues --    0.00428   0.02070   0.04541   0.05092   0.07808
 Alpha virt. eigenvalues --    0.08531   0.10268   0.13959   0.16974   0.17323
 Alpha virt. eigenvalues --    0.19595   0.20351   0.24461   0.24913   0.28171

 Mulliken charges:
               1
     1  C   -0.025396
     2  C   -0.048527
     3  C   -0.126563
     4  H    0.036314
     5  H    0.046771
     6  H    0.033400
     7  H    0.020794
     8  H    0.031603
     9  H    0.031603
 Sum of Mulliken charges =   0.00000

 Dipole moment (field-independent basis, Debye):
    X=             -0.4189    Y=             -0.0509    Z=              0.0000  Tot=              0.4220
 Quadrupole moment (field-independent basis, Debye-Ang):
   XX=            -19.4303   YY=            -19.3117   ZZ=            -22.0692
   XY=             -0.2105   XZ=             -0.0000   YZ=             -0.0000

  Exact polarizability:  51.209  -0.060  35.226  -0.000  -0.000  28.725
 Approx polarizability:  71.708  -4.621  47.039   0.000  -0.000  39.842

                      1                      2                      3
                     A"                     A'                     A"
 Frequencies --    205.4628               427.0094               592.7517
 Red. masses --      1.1589                 1.9479                 1.1930
 Frc consts  --      0.0288                 0.2093                 0.2470
 IR Inten    --      0.5052                 1.0035                13.5876

                      4                      5                      6
                     A'                     A"                     A'
 Frequencies --    924.5233               950.3076               950.8431
 Red. masses --      2.5110                 1.3186                 1.1466
 Frc consts  --      1.2646                 0.7016                 0.6108
 IR Inten    --      3.2628                51.0702                 3.1903

                      7                      8                      9
                     A"                     A"                     A'
 Frequencies --   1028.7123              1074.5497              1192.9375
 Red. masses --      1.0553                 1.5583                 1.7994
 Frc consts  --      0.6580                 1.0601                 1.5087
 IR Inten    --     11.0576                 2.9362                 0.4011

                     10                     11                     12
                     A'                     A'                     A'
 Frequencies --   1331.6955              1410.1233              1452.5115
 Red. masses --      1.2462                 1.2170                 1.1993
 Frc consts  --      1.3021                 1.4257                 1.4908
 IR Inten    --      0.0412                 1.7941                 0.9364

                     13                     14                     15
                     A"                     A'                     A'
 Frequencies --   1479.0303              1494.1689              1708.5063
 Red. masses --      1.0445                 1.0607                 4.3817
 Frc consts  --      1.3463                 1.3953                 7.5357
 IR Inten    --      7.5981                15.8284                16.3470

                     16                     17                     18
                     A'                     A"                     A'
 Frequencies --   3018.2132              3060.7209              3095.9907
 Red. masses --      1.0366                 1.0990                 1.0986
 Frc consts  --      5.5636                 6.0662                 6.2045
 IR Inten    --     24.4944                18.0473                10.0199

                     19                     20                     21
                     A'                     A'                     A'
 Frequencies --   3127.4323              3133.6393              3214.8276
 Red. masses --      1.0739                 1.0764                 1.1150
 Frc consts  --      6.1884                 6.2274                 6.7893
 IR Inten    --     30.0703                 2.9324                17.5048

 - Thermochemistry -
 -------------------
 Temperature   298.150 Kelvin.  Pressure   1.00000 Atm.
 Atom     1 has atomic number  6 and mass  12.00000

 Molecular mass:    42.04695 amu.
 Principal axes and moments of inertia in atomic units:
                           1         2         3
     Eigenvalues --    38.21117 193.62732 220.78790
           X            0.95980  -0.28070   0.00000
           Y            0.28070   0.95980   0.00000
           Z           -0.00000   0.00000   1.00000
 This molecule is an asymmetric top.
 Rotational symmetry number  1.
 Rotational temperatures (Kelvin)      2.26672     0.44732     0.39229
 Rotational constants (GHZ):          47.23073     9.32070     8.17409
 Zero-point vibrational energy     208592.6 (Joules/Mol)
                                   49.85482 (Kcal/Mol)
 Warning -- explicit consideration of   3 degrees of freedom as
           vibrations may cause significant error
 Vibrational temperatures:    295.62   614.37   852.84  1330.18  1367.28
          (Kelvin)           1368.05  1480.09  1546.04  1716.37  1916.01
                             2028.85  2089.84  2127.99  2149.78  2458.16
                             4342.54  4403.69  4454.44  4499.68  4508.61
                             4625.42

 Zero-point correction=                           0.079449 (Hartree/Particle)
 Thermal correction to Energy=                    0.083533
 Thermal correction to Enthalpy=                  0.084477
 Thermal correction to Gibbs Free Energy=         0.054448
 Sum of electronic and zero-point Energies=           -117.881145
 Sum of electronic and thermal Energies=              -117.877061
 Sum of electronic and thermal Enthalpies=            -117.876117
 Sum of electronic and thermal Free Energies=         -117.906147

                     E (Thermal)             CV                S
                      KCal/Mol        Cal/Mol-Kelvin    Cal/Mol-Kelvin
 Total                   52.418             12.965             63.203
 Electronic               0.000              0.000              0.000
 Translational            0.889              2.981             37.135
 Rotational               0.889              2.981             22.018
 Vibrational             50.640              7.003              4.050
 Vibration     1          0.640              1.832              2.084
 Vibration     2          0.789              1.411              0.868
 Vibration     3          0.950              1.047              0.462

 Optimization completed.
    -- Stationary point found.
 Normal termination of Gaussian 16 at Tue Jun 14 21:24:06 2022.
