 Gaussian 16, Revision B.01,

 ---------------------------------------
 # b3lyp/gen opt freq CPHF(Grid=OneStep)
 ---------------------------------------

 ----------------------
 propene, B3LYP/pcseg-2
 ----------------------
 Symbolic Z-matrix:
 Charge =  0 Multiplicity = 1

 SCF Done:  E(RB3LYP) =  -117.960594219     A.U. after   12 cycles
 Optimization completed.
    -- Stationary point found.
 Normal termination of Gaussian 16 at Fri Sep 29 23:05:16 2023.

 ------------------------------------------------------------------
 #N Geom=AllCheck Guess=TCheck SCRF=Check GenChk RB3LYP/ChkBas Freq
 ------------------------------------------------------------------

 Structure from the checkpoint file:  "propene.chk"
 ----------------------
 propene, B3LYP/pcseg-2
 ----------------------
 Charge =  0 Multiplicity = 1

 SCF Done:  E(RB3LYP) =  -117.960594219     A.U. after    1 cycles

  Exact polarizability:  51.208  -0.060  35.226   0.000  -0.000  28.726
 Approx polarizability:  71.708  -4.621  47.039  -0.000   0.000  39.842

                      1                      2                      3
                     A"                     A'                     A"
 Frequencies --    205.4637               427.0084               592.7568
 Red. masses --      1.1589                 1.9479                 1.1930
 Frc consts  --      0.0288                 0.2093                 0.2470
 IR Inten    --      0.5054                 1.0033                13.5845

                      4                      5                      6
                     A'                     A"                     A'
 Frequencies --    924.5238               950.3066               950.8437
 Red. masses --      2.5110                 1.3186                 1.1466
 Frc consts  --      1.2646                 0.7016                 0.6108
 IR Inten    --      3.2628                51.0714                 3.1899

                      7                      8                      9
                     A"                     A"                     A'
 Frequencies --   1028.7131              1074.5507              1192.9373
 Red. masses --      1.0553                 1.5583                 1.7994
 Frc consts  --      0.6580                 1.0601                 1.5087
 IR Inten    --     11.0578                 2.9367                 0.4012

                     10                     11                     12
                     A'                     A'                     A'
 Frequencies --   1331.6970              1410.1233              1452.5172
 Red. masses --      1.2462                 1.2170                 1.1993
 Frc consts  --      1.3021                 1.4257                 1.4908
 IR Inten    --      0.0412                 1.7939                 0.9370

                     13                     14                     15
                     A"                     A'                     A'
 Frequencies --   1479.0303              1494.1690              1708.4984
 Red. masses --      1.0445                 1.0607                 4.3816
 Frc consts  --      1.3463                 1.3953                 7.5354
 IR Inten    --      7.5976                15.8299                16.3448

                     16                     17                     18
                     A'                     A"                     A'
 Frequencies --   3018.2115              3060.7181              3095.9982
 Red. masses --      1.0366                 1.0990                 1.0986
 Frc consts  --      5.5636                 6.0662                 6.2045
 IR Inten    --     24.4950                18.0451                10.0205

                     19                     20                     21
                     A'                     A'                     A'
 Frequencies --   3127.4342              3133.6486              3214.8318
 Red. masses --      1.0739                 1.0763                 1.1150
 Frc consts  --      6.1884                 6.2273                 6.7894
 IR Inten    --     30.0659                 2.9356                17.5005

 - Thermochemistry -
 -------------------
 Temperature   298.150 Kelvin.  Pressure   1.00000 Atm.
 Atom     1 has atomic number  6 and mass  12.00000

 Molecular mass:    42.04695 amu.
 Principal axes and moments of inertia in atomic units:
                           1         2         3
     Eigenvalues --    38.21118 193.62736 220.78794
           X            0.95980  -0.28070   0.00000
           Y            0.28070   0.95980   0.00000
           Z            0.00000   0.00000   1.00000
 This molecule is an asymmetric top.
 Rotational symmetry number  1.
 Rotational temperatures (Kelvin)      2.26672     0.44732     0.39229
 Rotational constants (GHZ):          47.23070     9.32069     8.17409
 Zero-point vibrational energy     208592.7 (Joules/Mol)
                                   49.85486 (Kcal/Mol)
 Warning -- explicit consideration of   3 degrees of freedom as
           vibrations may cause significant error
 Vibrational temperatures:    295.62   614.37   852.84  1330.18  1367.28
          (Kelvin)           1368.05  1480.09  1546.04  1716.37  1916.02
                             2028.85  2089.85  2127.99  2149.78  2458.15
                             4342.53  4403.69  4454.45  4499.68  4508.62
                             4625.43

 Zero-point correction=                           0.079449 (Hartree/Particle)
 Thermal correction to Energy=                    0.083533
 Thermal correction to Enthalpy=                  0.084477
 Thermal correction to Gibbs Free Energy=         0.054448
 Sum of electronic and zero-point Energies=           -117.881145
 Sum of electronic and thermal Energies=              -117.877061
 Sum of electronic and thermal Enthalpies=            -117.876117
 Sum of electronic and thermal Free Energies=         -117.906147

                     E (Thermal)             CV                S
                      KCal/Mol        Cal/Mol-Kelvin    Cal/Mol-Kelvin
 Total                   52.418             12.965             63.203
 Electronic               0.000              0.000              0.000
 Translational            0.889              2.981             37.135
 Rotational               0.889              2.981             22.018
 Vibrational             50.640              7.003              4.050
 Vibration     1          0.640              1.832              2.084
 Vibration     2          0.789              1.411              0.868
 Vibration     3          0.950              1.047              0.462

 Optimization completed.
    -- Stationary point found.
 Normal termination of Gaussian 16 at Fri Sep 29 23:08:23 2023.
 Gaussian 16:  ES64L-G16RevB.01 20-Dec-2017

 ---------------------------------
 # rohf/gen geom=check guess=check
 ---------------------------------

 -------------------------
 propene, ROHF/cc-pVTZ-F12
 -------------------------
 Structure from the checkpoint file:  "propene.chk"
 Charge =  0 Multiplicity = 1

                         Standard orientation:
 ---------------------------------------------------------------------
 Center     Atomic      Atomic             Coordinates (Angstroms)
 Number     Number       Type             X           Y           Z
 ---------------------------------------------------------------------
      1          6           0       -1.134199   -0.504630    0.000000
      2          6           0        0.000000    0.471977    0.000000
      3          6           0        1.287772    0.151634    0.000000
      4          1           0        1.615663   -0.881198    0.000000
      5          1           0        2.060770    0.908157    0.000000
      6          1           0       -0.276807    1.522343    0.000000
      7          1           0       -0.776099   -1.534045    0.000000
      8          1           0       -1.772482   -0.364573    0.876136
      9          1           0       -1.772482   -0.364573   -0.876136
 ---------------------------------------------------------------------

 SCF Done:  E(ROHF) =  -117.123824639     A.U. after   11 cycles

 The electronic state is 1-A'.
 Alpha  occ. eigenvalues --  -11.23230 -11.22043 -11.21564  -1.06544  -0.93384
 Alpha  occ. eigenvalues --   -0.75773  -0.63988  -0.58454  -0.56734  -0.52451
 Alpha  occ. eigenvalues --   -0.49064  -0.36040
 Alpha virt. eigenvalues --    0.05300   0.05490   0.05819   0.07745   0.08592
 Alpha virt. eigenvalues --    0.09353   0.09807   0.10855   0.12121   0.12962
 Alpha virt. eigenvalues --    0.17914   0.18570   0.19167   0.21212   0.23247

 Mulliken charges and spin densities:
               1          2
     1  C   -0.247561   0.000000
     2  C   -0.057631   0.000000
     3  C   -0.360783   0.000000
     4  H    0.130541   0.000000
     5  H    0.140138   0.000000
     6  H    0.157335   0.000000
     7  H    0.082752   0.000000
     8  H    0.077605   0.000000
     9  H    0.077605   0.000000
 Sum of Mulliken charges =  -0.00000   0.00000

 Dipole moment (field-independent basis, Debye):
    X=             -0.4128    Y=             -0.0497    Z=              0.0000  Tot=              0.4157
 Quadrupole moment (field-independent basis, Debye-Ang):
   XX=            -19.2368   YY=            -19.1997   ZZ=            -22.2762
   XY=             -0.2935   XZ=              0.0000   YZ=              0.0000

 Normal termination of Gaussian 16 at Fri Sep 29 23:09:14 2023.
