 Gaussian 16, Revision B.01,
 Gaussian 16:  ES64L-G16RevB.01 20-Dec-2017

 --------------------
 # b3lyp/gen opt freq
 --------------------

 ----------------------
 propyne, B3LYP/pcseg-2
 ----------------------
 Symbolic Z-matrix:
 Charge =  0 Multiplicity = 1

 SCF Done:  E(RB3LYP) =  -116.707313428     A.U. after   12 cycles
 Optimization completed.
    -- Stationary point found.
 Normal termination of Gaussian 16 at Tue Jun 14 21:24:16 2022.

 ------------------------------------------------------------------
 #N Geom=AllCheck Guess=TCheck SCRF=Check GenChk RB3LYP/ChkBas Freq
 ------------------------------------------------------------------

 Structure from the checkpoint file:  "/wrk/irikura/Gau-14615.chk"
 ----------------------
 propyne, B3LYP/pcseg-2
 ----------------------
 Charge =  0 Multiplicity = 1

                         Standard orientation:
 ---------------------------------------------------------------------
 Center     Atomic      Atomic             Coordinates (Angstroms)
 Number     Number       Type             X           Y           Z
 ---------------------------------------------------------------------
      1          6           0        0.000000    0.000000   -1.236659
      2          6           0        0.000000    0.000000    0.218628
      3          6           0        0.000000    0.000000    1.417881
      4          1           0        0.000000    0.000000    2.479343
      5          1           0        0.000000    1.019098   -1.626146
      6          1           0        0.882565   -0.509549   -1.626146
      7          1           0       -0.882565   -0.509549   -1.626146
 ---------------------------------------------------------------------

 SCF Done:  E(RB3LYP) =  -116.707313428     A.U. after    1 cycles

 The electronic state is 1-A1.
 Alpha  occ. eigenvalues --  -10.19581 -10.17557 -10.16055  -0.78508  -0.70705
 Alpha  occ. eigenvalues --   -0.53252  -0.46099  -0.43845  -0.43845  -0.27623
 Alpha  occ. eigenvalues --   -0.27623
 Alpha virt. eigenvalues --    0.01560   0.03294   0.03294   0.04832   0.08564
 Alpha virt. eigenvalues --    0.08564   0.09817   0.16821   0.16821   0.17765
 Alpha virt. eigenvalues --    0.22065   0.22065   0.23138   0.25402   0.30140

 Mulliken charges:
               1
     1  C   -0.068647
     2  C    0.174787
     3  C   -0.303392
     4  H    0.037021
     5  H    0.053410
     6  H    0.053410
     7  H    0.053410
 Sum of Mulliken charges =   0.00000

 Dipole moment (field-independent basis, Debye):
    X=              0.0000    Y=             -0.0000    Z=             -0.8375  Tot=              0.8375
 Quadrupole moment (field-independent basis, Debye-Ang):
   XX=            -19.8238   YY=            -19.8238   ZZ=            -14.2686
   XY=             -0.0000   XZ=             -0.0000   YZ=              0.0000

  Exact polarizability:  24.569  -0.000  24.569   0.000   0.000  50.604
 Approx polarizability:  32.601  -0.000  32.601   0.000  -0.000  78.513

                      1                      2                      3
                      E                      E                      E
 Frequencies --    349.3283               349.3284               675.5713
 Red. masses --      2.9906                 2.9906                 1.2560
 Frc consts  --      0.2150                 0.2150                 0.3377
 IR Inten    --     10.6464                10.6463                52.9709

                      4                      5                      6
                      E                     A1                      E
 Frequencies --    675.5714               941.3061              1058.0267
 Red. masses --      1.2560                 4.1310                 1.4076
 Frc consts  --      0.3377                 2.1566                 0.9284
 IR Inten    --     52.9711                 0.3340                 0.4254

                      7                      8                      9
                      E                     A1                      E
 Frequencies --   1058.0267              1416.3188              1477.7926
 Red. masses --      1.4076                 1.2295                 1.0388
 Frc consts  --      0.9284                 1.4531                 1.3366
 IR Inten    --      0.4254                 0.0216                 8.1950

                     10                     11                     12
                      E                     A1                     A1
 Frequencies --   1477.7928              2224.2465              3031.1665
 Red. masses --      1.0388                 5.9715                 1.0340
 Frc consts  --      1.3366                17.4061                 5.5974
 IR Inten    --      8.1954                10.0944                17.1257

                     13                     14                     15
                      E                      E                     A1
 Frequencies --   3089.8136              3089.8139              3469.9710
 Red. masses --      1.1010                 1.1010                 1.1603
 Frc consts  --      6.1931                 6.1931                 8.2314
 IR Inten    --      6.8777                 6.8776                62.6794

 - Thermochemistry -
 -------------------
 Temperature   298.150 Kelvin.  Pressure   1.00000 Atm.
 Atom     1 has atomic number  6 and mass  12.00000

 Molecular mass:    40.03130 amu.
 Principal axes and moments of inertia in atomic units:
                           1         2         3
     Eigenvalues --    11.21337 209.51076 209.51076
           X            0.00000   0.80000  -0.60000
           Y            0.00000   0.60000   0.80000
           Z            1.00000  -0.00000  -0.00000
 This molecule is a prolate symmetric top.
 Rotational symmetry number  3.
 Rotational temperatures (Kelvin)      7.72417     0.41341     0.41341
 Rotational constants (GHZ):         160.94552     8.61407     8.61407
 Zero-point vibrational energy     145849.2 (Joules/Mol)
                                   34.85878 (Kcal/Mol)
 Warning -- explicit consideration of   2 degrees of freedom as
           vibrations may cause significant error
 Vibrational temperatures:    502.61   502.61   972.00   972.00  1354.33
          (Kelvin)           1522.26  1522.26  2037.77  2126.21  2126.21
                             3200.19  4361.17  4445.55  4445.55  4992.51

 Zero-point correction=                           0.055551 (Hartree/Particle)
 Thermal correction to Energy=                    0.059476
 Thermal correction to Enthalpy=                  0.060420
 Thermal correction to Gibbs Free Energy=         0.032410
 Sum of electronic and zero-point Energies=           -116.651762
 Sum of electronic and thermal Energies=              -116.647837
 Sum of electronic and thermal Enthalpies=            -116.646893
 Sum of electronic and thermal Free Energies=         -116.674903

                     E (Thermal)             CV                S
                      KCal/Mol        Cal/Mol-Kelvin    Cal/Mol-Kelvin
 Total                   37.322             12.218             58.952
 Electronic               0.000              0.000              0.000
 Translational            0.889              2.981             36.989
 Rotational               0.889              2.981             18.643
 Vibrational             35.544              6.256              3.321
 Vibration     1          0.727              1.577              1.169
 Vibration     2          0.727              1.577              1.169

 Optimization completed.
    -- Stationary point found.
 Normal termination of Gaussian 16 at Tue Jun 14 21:25:03 2022.
