 Gaussian 16, Revision B.01,
 Gaussian 16:  ES64L-G16RevB.01 20-Dec-2017

 --------------------
 # b3lyp/gen opt freq
 --------------------

 -------------------------------
 pyridine-N-oxide, B3LYP/pcseg-2
 -------------------------------
 Symbolic Z-matrix:
 Charge =  0 Multiplicity = 1

 SCF Done:  E(RB3LYP) =  -323.578040183     A.U. after   14 cycles
 SCF Done:  E(RB3LYP) =  -323.578317530     A.U. after   11 cycles
 SCF Done:  E(RB3LYP) =  -323.578320910     A.U. after    8 cycles
 Optimization completed.
    -- Stationary point found.
 Normal termination of Gaussian 16 at Sun Sep  3 16:42:04 2023.

 ------------------------------------------------------------------
 #N Geom=AllCheck Guess=TCheck SCRF=Check GenChk RB3LYP/ChkBas Freq
 ------------------------------------------------------------------

 Structure from the checkpoint file:  "/wrk/irikura/Gau-343782.chk"
 -------------------------------
 pyridine-N-oxide, B3LYP/pcseg-2
 -------------------------------
 Charge =  0 Multiplicity = 1

                         Standard orientation:
 ---------------------------------------------------------------------
 Center     Atomic      Atomic             Coordinates (Angstroms)
 Number     Number       Type             X           Y           Z
 ---------------------------------------------------------------------
      1          6           0        0.000000    1.175536    0.282169
      2          7           0        0.000000    0.000000    0.981995
      3          6           0        0.000000    1.189571   -1.095183
      4          6           0        0.000000   -0.000000   -1.814308
      5          6           0       -0.000000   -1.189571   -1.095183
      6          6           0       -0.000000   -1.175536    0.282169
      7          8           0        0.000000    0.000000    2.255446
      8          1           0        0.000000    2.053442    0.906792
      9          1           0        0.000000    2.146369   -1.597672
     10          1           0        0.000000   -0.000000   -2.893763
     11          1           0       -0.000000   -2.146369   -1.597672
     12          1           0       -0.000000   -2.053442    0.906792
 ---------------------------------------------------------------------

 SCF Done:  E(RB3LYP) =  -323.578320910     A.U. after    1 cycles

 The electronic state is 1-A1.
 Alpha  occ. eigenvalues --  -19.09810 -14.46880 -10.22889 -10.22888 -10.20880
 Alpha  occ. eigenvalues --  -10.20877 -10.20197  -1.11614  -0.91180  -0.80538
 Alpha  occ. eigenvalues --   -0.80037  -0.67914  -0.65074  -0.55026  -0.52697
 Alpha  occ. eigenvalues --   -0.49967  -0.48302  -0.46478  -0.46244  -0.40102
 Alpha  occ. eigenvalues --   -0.39800  -0.35946  -0.29699  -0.26022  -0.22910
 Alpha virt. eigenvalues --   -0.05729  -0.04416   0.00606   0.02900   0.04310
 Alpha virt. eigenvalues --    0.06984   0.07435   0.08897   0.09830   0.13892
 Alpha virt. eigenvalues --    0.14535   0.14750   0.16610   0.18128   0.18201

 Mulliken charges:
               1
     1  C    0.113314
     2  N    0.122560
     3  C   -0.036878
     4  C    0.019093
     5  C   -0.036878
     6  C    0.113314
     7  O   -0.531807
     8  H    0.065857
     9  H    0.034481
    10  H    0.036607
    11  H    0.034481
    12  H    0.065857
 Sum of Mulliken charges =  -0.00000

 Dipole moment (field-independent basis, Debye):
    X=             -0.0000    Y=             -0.0000    Z=             -4.2530  Tot=              4.2530
 Quadrupole moment (field-independent basis, Debye-Ang):
   XX=            -43.1703   YY=            -33.4626   ZZ=            -47.3132
   XY=              0.0000   XZ=             -0.0000   YZ=              0.0000

  Exact polarizability:  37.718  -0.000  74.724  -0.000   0.000  98.243
 Approx polarizability:  57.494   0.000 121.822  -0.000  -0.000 191.816

                      1                      2                      3
                     B1                     A2                     B2
 Frequencies --    208.3927               425.0290               480.6423
 Red. masses --      5.2443                 3.0384                 6.3894
 Frc consts  --      0.1342                 0.3234                 0.8697
 IR Inten    --      3.8107                 0.0000                 5.8770

                      4                      5                      6
                     B1                     A1                     B2
 Frequencies --    521.4306               554.9892               651.6411
 Red. masses --      2.9788                 8.0310                 6.4546
 Frc consts  --      0.4772                 1.4574                 1.6149
 IR Inten    --      8.4095                 6.5310                 0.5546

                      7                      8                      9
                     B1                     B1                     A2
 Frequencies --    685.8208               778.9531               837.3977
 Red. masses --      2.0455                 1.7068                 1.2545
 Frc consts  --      0.5668                 0.6102                 0.5183
 IR Inten    --     31.4474                55.2160                 0.0000

                     10                     11                     12
                     A1                     B1                     A2
 Frequencies --    860.1945               903.2176               966.0040
 Red. masses --      5.5883                 1.4812                 1.3313
 Frc consts  --      2.4363                 0.7119                 0.7320
 IR Inten    --     13.0767                 8.1863                 0.0000

                     13                     14                     15
                     B1                     A1                     A1
 Frequencies --    980.6852              1032.1809              1060.8157
 Red. masses --      1.2412                 6.3502                 2.0245
 Frc consts  --      0.7033                 3.9861                 1.3423
 IR Inten    --      0.0427                42.9573                 0.0115

                     16                     17                     18
                     B2                     B2                     A1
 Frequencies --   1093.4521              1173.3586              1195.6795
 Red. masses --      1.6248                 1.0995                 1.1506
 Frc consts  --      1.1446                 0.8919                 0.9692
 IR Inten    --      3.8242                 0.6526                30.5863

                     19                     20                     21
                     B2                     A1                     B2
 Frequencies --   1250.8973              1329.3496              1362.1111
 Red. masses --      5.6567                 6.6198                 1.2778
 Frc consts  --      5.2150                 6.8925                 1.3968
 IR Inten    --      2.4491               201.2367                 0.0839

                     22                     23                     24
                     A1                     B2                     B2
 Frequencies --   1498.2565              1511.0507              1581.1850
 Red. masses --      2.1036                 2.6056                 5.4539
 Frc consts  --      2.7822                 3.5052                 8.0339
 IR Inten    --    111.3311                 4.0078                 4.5372

                     25                     26                     27
                     A1                     A1                     B2
 Frequencies --   1655.9433              3191.9079              3197.6808
 Red. masses --      5.2728                 1.0873                 1.0909
 Frc consts  --      8.5189                 6.5265                 6.5719
 IR Inten    --     40.0038                 0.2070                 5.9300

                     28                     29                     30
                     A1                     B2                     A1
 Frequencies --   3215.0916              3243.7494              3245.2113
 Red. masses --      1.0958                 1.0933                 1.0951
 Frc consts  --      6.6738                 6.7780                 6.7951
 IR Inten    --      2.8024                 0.3571                 0.1472

 - Thermochemistry -
 -------------------
 Temperature   298.150 Kelvin.  Pressure   1.00000 Atm.
 Atom     1 has atomic number  6 and mass  12.00000

 Molecular mass:    95.03711 amu.
 Principal axes and moments of inertia in atomic units:
                           1         2         3
     Eigenvalues --   303.22716 643.22363 946.45078
           X            0.00000  -0.00000   1.00000
           Y            0.00000   1.00000   0.00000
           Z            1.00000  -0.00000   0.00000
 This molecule is an asymmetric top.
 Rotational symmetry number  2.
 Rotational temperatures (Kelvin)      0.28564     0.13466     0.09151
 Rotational constants (GHZ):           5.95178     2.80578     1.90685
 Zero-point vibrational energy     243394.1 (Joules/Mol)
                                   58.17259 (Kcal/Mol)
 Warning -- explicit consideration of   5 degrees of freedom as
           vibrations may cause significant error
 Vibrational temperatures:    299.83   611.52   691.54   750.22   798.51
          (Kelvin)            937.57   986.74  1120.74  1204.83  1237.63
                             1299.53  1389.86  1410.99  1485.08  1526.28
                             1573.23  1688.20  1720.32  1799.76  1912.64
                             1959.77  2155.66  2174.06  2274.97  2382.53
                             4592.44  4600.75  4625.80  4667.03  4669.14

 Zero-point correction=                           0.092704 (Hartree/Particle)
 Thermal correction to Energy=                    0.097778
 Thermal correction to Enthalpy=                  0.098722
 Thermal correction to Gibbs Free Energy=         0.064648
 Sum of electronic and zero-point Energies=           -323.485617
 Sum of electronic and thermal Energies=              -323.480543
 Sum of electronic and thermal Enthalpies=            -323.479599
 Sum of electronic and thermal Free Energies=         -323.513673

                     E (Thermal)             CV                S
                      KCal/Mol        Cal/Mol-Kelvin    Cal/Mol-Kelvin
 Total                   61.356             19.805             71.715
 Electronic               0.000              0.000              0.000
 Translational            0.889              2.981             39.566
 Rotational               0.889              2.981             25.337
 Vibrational             59.579             13.844              6.811
 Vibration     1          0.642              1.828              2.058
 Vibration     2          0.787              1.416              0.875
 Vibration     3          0.837              1.293              0.708
 Vibration     4          0.876              1.203              0.607
 Vibration     5          0.910              1.129              0.534

 Optimization completed.
    -- Stationary point found.
 Normal termination of Gaussian 16 at Sun Sep  3 16:44:31 2023.
