 Gaussian 16, Revision B.01,
 Gaussian 16:  ES64L-G16RevB.01 20-Dec-2017

 -------------------------------
 # b3lyp/gen opt freq symm=loose
 -------------------------------

 -----------------------
 pyridine, B3LYP/pcseg-2
 -----------------------
 Symbolic Z-matrix:
 Charge =  0 Multiplicity = 1

 SCF Done:  E(RB3LYP) =  -248.380493035     A.U. after   12 cycles
 SCF Done:  E(RB3LYP) =  -248.380596591     A.U. after    8 cycles
 SCF Done:  E(RB3LYP) =  -248.380597505     A.U. after    7 cycles
 Optimization completed.
    -- Stationary point found.
 Normal termination of Gaussian 16 at Fri Sep  8 17:54:31 2023.

 ------------------------------------------------------------------
 #N Geom=AllCheck Guess=TCheck SCRF=Check GenChk RB3LYP/ChkBas Freq
 ------------------------------------------------------------------

 Structure from the checkpoint file:  "/wrk/irikura/Gau-13465.chk"
 -----------------------
 pyridine, B3LYP/pcseg-2
 -----------------------
 Charge =  0 Multiplicity = 1

                         Standard orientation:
 ---------------------------------------------------------------------
 Center     Atomic      Atomic             Coordinates (Angstroms)
 Number     Number       Type             X           Y           Z
 ---------------------------------------------------------------------
      1          7           0        0.000000    0.000000    1.411885
      2          6           0       -0.000000   -0.000000   -1.378973
      3          6           0        0.000000    1.139754    0.719726
      4          6           0       -0.000000   -1.139754    0.719726
      5          6           0       -0.000000    1.193665   -0.669713
      6          6           0       -0.000000   -1.193665   -0.669713
      7          1           0       -0.000000   -0.000000   -2.460816
      8          1           0        0.000000    2.053411    1.303282
      9          1           0       -0.000000   -2.053411    1.303282
     10          1           0       -0.000000    2.148166   -1.177632
     11          1           0       -0.000000   -2.148166   -1.177632
 ---------------------------------------------------------------------

 SCF Done:  E(RB3LYP) =  -248.380597505     A.U. after    1 cycles

 The electronic state is 1-A1.
 Alpha  occ. eigenvalues --  -14.31446 -10.21198 -10.21198 -10.19850 -10.18854
 Alpha  occ. eigenvalues --  -10.18852  -0.94983  -0.81293  -0.76952  -0.63795
 Alpha  occ. eigenvalues --   -0.63617  -0.53825  -0.49044  -0.47775  -0.43786
 Alpha  occ. eigenvalues --   -0.41296  -0.40874  -0.37324  -0.29931  -0.27445
 Alpha  occ. eigenvalues --   -0.26415
 Alpha virt. eigenvalues --   -0.04007  -0.02713   0.01355   0.03608   0.04691
 Alpha virt. eigenvalues --    0.06912   0.08021   0.11819   0.12070   0.14936
 Alpha virt. eigenvalues --    0.15806   0.16085   0.19219   0.19412   0.19887

 Mulliken charges:
               1
     1  N   -0.349670
     2  C    0.056574
     3  C    0.140976
     4  C    0.140976
     5  C   -0.074071
     6  C   -0.074071
     7  H    0.032510
     8  H    0.035752
     9  H    0.035752
    10  H    0.027636
    11  H    0.027636
 Sum of Mulliken charges =  -0.00000

 Dipole moment (field-independent basis, Debye):
    X=             -0.0000    Y=              0.0000    Z=             -2.2774  Tot=              2.2774
 Quadrupole moment (field-independent basis, Debye-Ang):
   XX=            -37.9746   YY=            -29.7879   ZZ=            -36.8585
   XY=              0.0000   XZ=             -0.0000   YZ=             -0.0000

  Exact polarizability:  36.256  -0.000  74.913  -0.000  -0.000  70.026
 Approx polarizability:  55.190   0.000 121.827  -0.000  -0.000 116.818

                      1                      2                      3
                     A2                     B1                     A1
 Frequencies --    383.4865               419.9726               616.8226
 Red. masses --      2.5380                 3.7417                 7.1580
 Frc consts  --      0.2199                 0.3888                 1.6046
 IR Inten    --      0.0000                 3.8722                 4.1992

                      4                      5                      6
                     B2                     B1                     B1
 Frequencies --    670.9824               719.1981               765.5669
 Red. masses --      6.3612                 1.3587                 2.3215
 Frc consts  --      1.6874                 0.4141                 0.8017
 IR Inten    --      0.2529                65.1440                10.3151

                      7                      8                      9
                     A2                     B1                     A2
 Frequencies --    901.0103               963.5501              1009.8796
 Red. masses --      1.2474                 1.3351                 1.4758
 Frc consts  --      0.5966                 0.7303                 0.8868
 IR Inten    --      0.0000                 0.0147                 0.0000

                     10                     11                     12
                     A1                     B1                     A1
 Frequencies --   1012.5102              1021.5720              1050.7464
 Red. masses --      7.0466                 1.3072                 4.3894
 Frc consts  --      4.2563                 0.8038                 2.8553
 IR Inten    --      5.5588                 0.0030                 7.1319

                     13                     14                     15
                     B2                     A1                     B2
 Frequencies --   1078.9119              1095.9134              1172.2298
 Red. masses --      1.7888                 1.7734                 1.1626
 Frc consts  --      1.2268                 1.2549                 0.9413
 IR Inten    --      0.0369                 3.7080                 2.5761

                     16                     17                     18
                     A1                     B2                     B2
 Frequencies --   1243.5142              1282.8314              1391.7538
 Red. masses --      1.2944                 6.4596                 1.1998
 Frc consts  --      1.1793                 6.2632                 1.3693
 IR Inten    --      3.9776                 0.0177                 0.1125

                     19                     20                     21
                     B2                     A1                     B2
 Frequencies --   1476.4763              1517.3572              1619.0804
 Red. masses --      2.0672                 1.9375                 5.4563
 Frc consts  --      2.6552                 2.6282                 8.4272
 IR Inten    --     26.5953                 2.2905                 9.6261

                     22                     23                     24
                     A1                     B2                     A1
 Frequencies --   1623.7752              3151.1454              3153.6342
 Red. masses --      4.9527                 1.0873                 1.0904
 Frc consts  --      7.6938                 6.3614                 6.3896
 IR Inten    --     24.2830                27.6274                 4.3384

                     25                     26                     27
                     A1                     B2                     A1
 Frequencies --   3175.4304              3190.7211              3198.5825
 Red. masses --      1.0886                 1.0929                 1.0983
 Frc consts  --      6.4676                 6.5556                 6.6205
 IR Inten    --      4.5616                24.2325                 6.5799

 - Thermochemistry -
 -------------------
 Temperature   298.150 Kelvin.  Pressure   1.00000 Atm.
 Atom     1 has atomic number  7 and mass  14.00307

 Molecular mass:    79.04220 amu.
 Principal axes and moments of inertia in atomic units:
                           1         2         3
     Eigenvalues --   297.01776 307.79104 604.80880
           X            0.00000   0.00000   1.00000
           Y            0.00000   1.00000  -0.00000
           Z            1.00000   0.00000   0.00000
 This molecule is an asymmetric top.
 Rotational symmetry number  2.
 Rotational temperatures (Kelvin)      0.29161     0.28140     0.14321
 Rotational constants (GHZ):           6.07621     5.86353     2.98399
 Zero-point vibrational energy     232713.5 (Joules/Mol)
                                   55.61986 (Kcal/Mol)
 Warning -- explicit consideration of   3 degrees of freedom as
           vibrations may cause significant error
 Vibrational temperatures:    551.75   604.25   887.47   965.39  1034.77
          (Kelvin)           1101.48  1296.35  1386.33  1452.99  1456.78
                             1469.81  1511.79  1552.31  1576.77  1686.58
                             1789.14  1845.71  2002.42  2124.32  2183.14
                             2329.50  2336.25  4533.80  4537.38  4568.74
                             4590.74  4602.05

 Zero-point correction=                           0.088636 (Hartree/Particle)
 Thermal correction to Energy=                    0.092906
 Thermal correction to Enthalpy=                  0.093850
 Thermal correction to Gibbs Free Energy=         0.061900
 Sum of electronic and zero-point Energies=           -248.291962
 Sum of electronic and thermal Energies=              -248.287691
 Sum of electronic and thermal Enthalpies=            -248.286747
 Sum of electronic and thermal Free Energies=         -248.318698

                     E (Thermal)             CV                S
                      KCal/Mol        Cal/Mol-Kelvin    Cal/Mol-Kelvin
 Total                   58.300             16.104             67.246
 Electronic               0.000              0.000              0.000
 Translational            0.889              2.981             39.017
 Rotational               0.889              2.981             24.140
 Vibrational             56.522             10.142              4.089
 Vibration     1          0.753              1.505              1.025
 Vibration     2          0.783              1.427              0.892
 Vibration     3          0.977              0.996              0.422

 Optimization completed.
    -- Stationary point found.
 Normal termination of Gaussian 16 at Fri Sep  8 17:56:05 2023.
