 Gaussian 16, Revision B.01,

 ---------------------------------------
 # b3lyp/gen opt freq CPHF(Grid=OneStep)
 ---------------------------------------

 -------------------------------
 pyridine-N-oxide, B3LYP/pcseg-2
 -------------------------------
 Symbolic Z-matrix:
 Charge =  0 Multiplicity = 1

 SCF Done:  E(RB3LYP) =  -323.578320911     A.U. after   14 cycles
 Optimization completed.
    -- Stationary point found.
 Normal termination of Gaussian 16 at Fri Sep 29 14:09:59 2023.

 ------------------------------------------------------------------
 #N Geom=AllCheck Guess=TCheck SCRF=Check GenChk RB3LYP/ChkBas Freq
 ------------------------------------------------------------------

 Structure from the checkpoint file:  "pyridine-N-oxide.chk"
 -------------------------------
 pyridine-N-oxide, B3LYP/pcseg-2
 -------------------------------
 Charge =  0 Multiplicity = 1

 SCF Done:  E(RB3LYP) =  -323.578320911     A.U. after    1 cycles

  Exact polarizability:  37.719   0.000  74.724  -0.000   0.000  98.244
 Approx polarizability:  57.494   0.000 121.823  -0.000   0.000 191.816

                      1                      2                      3
                     B1                     A2                     B2
 Frequencies --    208.3923               425.0287               480.6428
 Red. masses --      5.2444                 3.0383                 6.3894
 Frc consts  --      0.1342                 0.3234                 0.8697
 IR Inten    --      3.8105                 0.0000                 5.8767

                      4                      5                      6
                     B1                     A1                     B2
 Frequencies --    521.4317               554.9911               651.6396
 Red. masses --      2.9787                 8.0310                 6.4546
 Frc consts  --      0.4772                 1.4574                 1.6149
 IR Inten    --      8.4076                 6.5319                 0.5545

                      7                      8                      9
                     B1                     B1                     A2
 Frequencies --    685.8214               778.9531               837.4012
 Red. masses --      2.0455                 1.7068                 1.2545
 Frc consts  --      0.5668                 0.6102                 0.5183
 IR Inten    --     31.4499                55.2181                 0.0000

                     10                     11                     12
                     A1                     B1                     A2
 Frequencies --    860.2003               903.2154               966.0011
 Red. masses --      5.5883                 1.4811                 1.3313
 Frc consts  --      2.4363                 0.7119                 0.7320
 IR Inten    --     13.0798                 8.1860                 0.0000

                     13                     14                     15
                     B1                     A1                     A1
 Frequencies --    980.6847              1032.1815              1060.8174
 Red. masses --      1.2412                 6.3502                 2.0245
 Frc consts  --      0.7033                 3.9861                 1.3423
 IR Inten    --      0.0426                42.9620                 0.0115

                     16                     17                     18
                     B2                     B2                     A1
 Frequencies --   1093.4515              1173.3583              1195.6775
 Red. masses --      1.6248                 1.0995                 1.1506
 Frc consts  --      1.1446                 0.8919                 0.9692
 IR Inten    --      3.8248                 0.6523                30.5898

                     19                     20                     21
                     B2                     A1                     B2
 Frequencies --   1250.8978              1329.3346              1362.1097
 Red. masses --      5.6565                 6.6202                 1.2778
 Frc consts  --      5.2149                 6.8927                 1.3968
 IR Inten    --      2.4485               201.2485                 0.0839

                     22                     23                     24
                     A1                     B2                     B2
 Frequencies --   1498.2592              1511.0551              1581.1846
 Red. masses --      2.1036                 2.6056                 5.4541
 Frc consts  --      2.7822                 3.5053                 8.0341
 IR Inten    --    111.3183                 4.0072                 4.5364

                     25                     26                     27
                     A1                     A1                     B2
 Frequencies --   1655.9374              3191.9186              3197.6917
 Red. masses --      5.2728                 1.0873                 1.0909
 Frc consts  --      8.5187                 6.5266                 6.5719
 IR Inten    --     40.0083                 0.2070                 5.9297

                     28                     29                     30
                     A1                     B2                     A1
 Frequencies --   3215.0989              3243.7513              3245.2130
 Red. masses --      1.0958                 1.0933                 1.0951
 Frc consts  --      6.6738                 6.7780                 6.7951
 IR Inten    --      2.8015                 0.3576                 0.1472

 - Thermochemistry -
 -------------------
 Temperature   298.150 Kelvin.  Pressure   1.00000 Atm.
 Atom     1 has atomic number  6 and mass  12.00000

 Molecular mass:    95.03711 amu.
 Principal axes and moments of inertia in atomic units:
                           1         2         3
     Eigenvalues --   303.22723 643.22374 946.45098
           X            0.00000  -0.00000   1.00000
           Y            0.00000   1.00000   0.00000
           Z            1.00000  -0.00000   0.00000
 This molecule is an asymmetric top.
 Rotational symmetry number  2.
 Rotational temperatures (Kelvin)      0.28564     0.13466     0.09151
 Rotational constants (GHZ):           5.95178     2.80578     1.90685
 Zero-point vibrational energy     243394.3 (Joules/Mol)
                                   58.17262 (Kcal/Mol)
 Warning -- explicit consideration of   5 degrees of freedom as
           vibrations may cause significant error
 Vibrational temperatures:    299.83   611.52   691.54   750.22   798.51
          (Kelvin)            937.56   986.74  1120.74  1204.83  1237.64
                             1299.53  1389.86  1410.99  1485.08  1526.28
                             1573.23  1688.20  1720.31  1799.76  1912.62
                             1959.77  2155.66  2174.07  2274.97  2382.52
                             4592.46  4600.77  4625.81  4667.03  4669.14

 Zero-point correction=                           0.092704 (Hartree/Particle)
 Thermal correction to Energy=                    0.097778
 Thermal correction to Enthalpy=                  0.098722
 Thermal correction to Gibbs Free Energy=         0.064648
 Sum of electronic and zero-point Energies=           -323.485617
 Sum of electronic and thermal Energies=              -323.480543
 Sum of electronic and thermal Enthalpies=            -323.479599
 Sum of electronic and thermal Free Energies=         -323.513673

                     E (Thermal)             CV                S
                      KCal/Mol        Cal/Mol-Kelvin    Cal/Mol-Kelvin
 Total                   61.356             19.805             71.715
 Electronic               0.000              0.000              0.000
 Translational            0.889              2.981             39.566
 Rotational               0.889              2.981             25.337
 Vibrational             59.579             13.844              6.811
 Vibration     1          0.642              1.828              2.058
 Vibration     2          0.787              1.416              0.875
 Vibration     3          0.837              1.293              0.708
 Vibration     4          0.876              1.203              0.607
 Vibration     5          0.910              1.129              0.534

 Optimization completed.
    -- Stationary point found.
 Normal termination of Gaussian 16 at Fri Sep 29 14:20:28 2023.
 Gaussian 16:  ES64L-G16RevB.01 20-Dec-2017

 ---------------------------------
 # rohf/gen geom=check guess=check
 ---------------------------------

 ----------------------------------
 pyridine-N-oxide, ROHF/cc-pVTZ-F12
 ----------------------------------
 Structure from the checkpoint file:  "pyridine-N-oxide.chk"
 Charge =  0 Multiplicity = 1

                         Standard orientation:
 ---------------------------------------------------------------------
 Center     Atomic      Atomic             Coordinates (Angstroms)
 Number     Number       Type             X           Y           Z
 ---------------------------------------------------------------------
      1          6           0        0.000000    1.175536    0.282169
      2          7           0        0.000000   -0.000000    0.981995
      3          6           0        0.000000    1.189571   -1.095183
      4          6           0       -0.000000    0.000000   -1.814308
      5          6           0       -0.000000   -1.189571   -1.095183
      6          6           0       -0.000000   -1.175536    0.282169
      7          8           0        0.000000   -0.000000    2.255446
      8          1           0        0.000000    2.053442    0.906792
      9          1           0        0.000000    2.146369   -1.597672
     10          1           0       -0.000000    0.000000   -2.893763
     11          1           0       -0.000000   -2.146369   -1.597672
     12          1           0       -0.000000   -2.053442    0.906792
 ---------------------------------------------------------------------

 SCF Done:  E(ROHF) =  -321.607925645     A.U. after   14 cycles

 The electronic state is 1-A1.
 Alpha  occ. eigenvalues --  -20.50481 -15.73071 -11.29587 -11.29585 -11.27089
 Alpha  occ. eigenvalues --  -11.27023 -11.26906  -1.44911  -1.20841  -1.08203
 Alpha  occ. eigenvalues --   -1.07291  -0.90629  -0.87917  -0.73942  -0.71094
 Alpha  occ. eigenvalues --   -0.68444  -0.64105  -0.63362  -0.63088  -0.55566
 Alpha  occ. eigenvalues --   -0.55398  -0.48475  -0.42130  -0.38182  -0.32309
 Alpha virt. eigenvalues --    0.03684   0.04400   0.05490   0.05677   0.06675
 Alpha virt. eigenvalues --    0.07483   0.07712   0.08297   0.09056   0.09959
 Alpha virt. eigenvalues --    0.10491   0.10779   0.11158   0.12135   0.13176

 Mulliken charges and spin densities:
               1          2
     1  C    0.104109   0.000000
     2  N   -0.048900   0.000000
     3  C   -0.130798   0.000000
     4  C   -0.130515   0.000000
     5  C   -0.130798   0.000000
     6  C    0.104109   0.000000
     7  O   -0.673733   0.000000
     8  H    0.209191   0.000000
     9  H    0.163657   0.000000
    10  H    0.160832   0.000000
    11  H    0.163657   0.000000
    12  H    0.209191   0.000000
 Sum of Mulliken charges =  -0.00000   0.00000

 Dipole moment (field-independent basis, Debye):
    X=             -0.0000    Y=             -0.0000    Z=             -5.2456  Tot=              5.2456
 Quadrupole moment (field-independent basis, Debye-Ang):
   XX=            -43.7937   YY=            -32.3642   ZZ=            -48.6008
   XY=              0.0000   XZ=             -0.0000   YZ=              0.0000

 Normal termination of Gaussian 16 at Fri Sep 29 14:25:42 2023.
