 Gaussian 16, Revision B.01,

 ---------------------------------------
 # b3lyp/gen opt freq CPHF(Grid=OneStep)
 ---------------------------------------

 -----------------------
 pyridine, B3LYP/pcseg-2
 -----------------------
 Symbolic Z-matrix:
 Charge =  0 Multiplicity = 1

 SCF Done:  E(RB3LYP) =  -248.380597505     A.U. after   12 cycles
 Optimization completed.
    -- Stationary point found.
 Normal termination of Gaussian 16 at Sat Sep 30 00:35:13 2023.

 ------------------------------------------------------------------
 #N Geom=AllCheck Guess=TCheck SCRF=Check GenChk RB3LYP/ChkBas Freq
 ------------------------------------------------------------------

 Structure from the checkpoint file:  "pyridine.chk"
 -----------------------
 pyridine, B3LYP/pcseg-2
 -----------------------
 Charge =  0 Multiplicity = 1

 SCF Done:  E(RB3LYP) =  -248.380597505     A.U. after    1 cycles

  Exact polarizability:  36.256   0.000  74.913  -0.000  -0.000  70.026
 Approx polarizability:  55.190   0.000 121.827  -0.000   0.000 116.818

                      1                      2                      3
                     A2                     B1                     A1
 Frequencies --    383.4868               419.9729               616.8266
 Red. masses --      2.5380                 3.7418                 7.1581
 Frc consts  --      0.2199                 0.3888                 1.6046
 IR Inten    --      0.0000                 3.8715                 4.1982

                      4                      5                      6
                     B2                     B1                     B1
 Frequencies --    670.9789               719.1984               765.5673
 Red. masses --      6.3612                 1.3586                 2.3216
 Frc consts  --      1.6874                 0.4140                 0.8017
 IR Inten    --      0.2530                65.1471                10.3113

                      7                      8                      9
                     A2                     B1                     A2
 Frequencies --    901.0109               963.5511              1009.8789
 Red. masses --      1.2474                 1.3351                 1.4758
 Frc consts  --      0.5966                 0.7303                 0.8868
 IR Inten    --      0.0000                 0.0146                 0.0000

                     10                     11                     12
                     A1                     B1                     A1
 Frequencies --   1012.5107              1021.5727              1050.7464
 Red. masses --      7.0465                 1.3072                 4.3894
 Frc consts  --      4.2562                 0.8038                 2.8553
 IR Inten    --      5.5582                 0.0031                 7.1307

                     13                     14                     15
                     B2                     A1                     B2
 Frequencies --   1078.9138              1095.9170              1172.2305
 Red. masses --      1.7888                 1.7733                 1.1626
 Frc consts  --      1.2268                 1.2549                 0.9413
 IR Inten    --      0.0369                 3.7090                 2.5771

                     16                     17                     18
                     A1                     B2                     B2
 Frequencies --   1243.5152              1282.8309              1391.7537
 Red. masses --      1.2944                 6.4595                 1.1998
 Frc consts  --      1.1793                 6.2631                 1.3693
 IR Inten    --      3.9782                 0.0176                 0.1125

                     19                     20                     21
                     B2                     A1                     B2
 Frequencies --   1476.4827              1517.3614              1619.0815
 Red. masses --      2.0672                 1.9375                 5.4564
 Frc consts  --      2.6552                 2.6283                 8.4274
 IR Inten    --     26.5916                 2.2890                 9.6255

                     22                     23                     24
                     A1                     B2                     A1
 Frequencies --   1623.7721              3151.1473              3153.6363
 Red. masses --      4.9527                 1.0873                 1.0904
 Frc consts  --      7.6938                 6.3614                 6.3896
 IR Inten    --     24.2804                27.6245                 4.3372

                     25                     26                     27
                     A1                     B2                     A1
 Frequencies --   3175.4337              3190.7270              3198.5863
 Red. masses --      1.0886                 1.0929                 1.0983
 Frc consts  --      6.4676                 6.5556                 6.6205
 IR Inten    --      4.5617                24.2312                 6.5783

 - Thermochemistry -
 -------------------
 Temperature   298.150 Kelvin.  Pressure   1.00000 Atm.
 Atom     1 has atomic number  7 and mass  14.00307

 Molecular mass:    79.04220 amu.
 Principal axes and moments of inertia in atomic units:
                           1         2         3
     Eigenvalues --   297.01776 307.79103 604.80879
           X            0.00000   0.00000   1.00000
           Y            0.00000   1.00000  -0.00000
           Z            1.00000  -0.00000  -0.00000
 This molecule is an asymmetric top.
 Rotational symmetry number  2.
 Rotational temperatures (Kelvin)      0.29161     0.28140     0.14321
 Rotational constants (GHZ):           6.07621     5.86353     2.98399
 Zero-point vibrational energy     232713.7 (Joules/Mol)
                                   55.61991 (Kcal/Mol)
 Warning -- explicit consideration of   3 degrees of freedom as
           vibrations may cause significant error
 Vibrational temperatures:    551.75   604.25   887.48   965.39  1034.77
          (Kelvin)           1101.48  1296.35  1386.34  1452.99  1456.78
                             1469.82  1511.79  1552.32  1576.78  1686.58
                             1789.14  1845.71  2002.42  2124.33  2183.14
                             2329.50  2336.25  4533.80  4537.38  4568.74
                             4590.74  4602.05

 Zero-point correction=                           0.088636 (Hartree/Particle)
 Thermal correction to Energy=                    0.092906
 Thermal correction to Enthalpy=                  0.093851
 Thermal correction to Gibbs Free Energy=         0.061900
 Sum of electronic and zero-point Energies=           -248.291962
 Sum of electronic and thermal Energies=              -248.287691
 Sum of electronic and thermal Enthalpies=            -248.286747
 Sum of electronic and thermal Free Energies=         -248.318698

                     E (Thermal)             CV                S
                      KCal/Mol        Cal/Mol-Kelvin    Cal/Mol-Kelvin
 Total                   58.300             16.104             67.246
 Electronic               0.000              0.000              0.000
 Translational            0.889              2.981             39.017
 Rotational               0.889              2.981             24.140
 Vibrational             56.522             10.142              4.089
 Vibration     1          0.753              1.505              1.025
 Vibration     2          0.783              1.427              0.892
 Vibration     3          0.977              0.996              0.422

 Optimization completed.
    -- Stationary point found.
 Normal termination of Gaussian 16 at Sat Sep 30 00:41:59 2023.
 Gaussian 16:  ES64L-G16RevB.01 20-Dec-2017

 ---------------------------------
 # rohf/gen geom=check guess=check
 ---------------------------------

 --------------------------
 pyridine, ROHF/cc-pVTZ-F12
 --------------------------
 Structure from the checkpoint file:  "pyridine.chk"
 Charge =  0 Multiplicity = 1

                         Standard orientation:
 ---------------------------------------------------------------------
 Center     Atomic      Atomic             Coordinates (Angstroms)
 Number     Number       Type             X           Y           Z
 ---------------------------------------------------------------------
      1          7           0       -0.000000    0.000000    1.411885
      2          6           0        0.000000   -0.000000   -1.378973
      3          6           0       -0.000000    1.139754    0.719726
      4          6           0       -0.000000   -1.139754    0.719726
      5          6           0        0.000000    1.193665   -0.669713
      6          6           0       -0.000000   -1.193665   -0.669713
      7          1           0        0.000000   -0.000000   -2.460816
      8          1           0       -0.000000    2.053411    1.303282
      9          1           0       -0.000000   -2.053411    1.303282
     10          1           0        0.000000    2.148166   -1.177632
     11          1           0       -0.000000   -2.148166   -1.177632
 ---------------------------------------------------------------------

 SCF Done:  E(ROHF) =  -246.792616137     A.U. after   12 cycles

 The electronic state is 1-A1.
 Alpha  occ. eigenvalues --  -15.56320 -11.27339 -11.27337 -11.25853 -11.24069
 Alpha  occ. eigenvalues --  -11.24063  -1.26010  -1.09073  -1.03503  -0.85930
 Alpha  occ. eigenvalues --   -0.85763  -0.72302  -0.66281  -0.65410  -0.59943
 Alpha  occ. eigenvalues --   -0.57717  -0.54370  -0.52145  -0.41814  -0.38526
 Alpha  occ. eigenvalues --   -0.34873
 Alpha virt. eigenvalues --    0.04437   0.04997   0.05614   0.06917   0.07219
 Alpha virt. eigenvalues --    0.07264   0.08853   0.09813   0.10061   0.10544
 Alpha virt. eigenvalues --    0.10575   0.10576   0.11159   0.12577   0.13676

 Mulliken charges and spin densities:
               1          2
     1  N   -0.570303   0.000000
     2  C   -0.142936   0.000000
     3  C    0.113812   0.000000
     4  C    0.113812   0.000000
     5  C   -0.157619   0.000000
     6  C   -0.157619   0.000000
     7  H    0.152727   0.000000
     8  H    0.166467   0.000000
     9  H    0.166467   0.000000
    10  H    0.157596   0.000000
    11  H    0.157596   0.000000
 Sum of Mulliken charges =  -0.00000   0.00000

 Dipole moment (field-independent basis, Debye):
    X=             -0.0000    Y=              0.0000    Z=             -2.3093  Tot=              2.3093
 Quadrupole moment (field-independent basis, Debye-Ang):
   XX=            -38.7630   YY=            -29.3727   ZZ=            -36.6090
   XY=              0.0000   XZ=             -0.0000   YZ=             -0.0000

 Normal termination of Gaussian 16 at Sat Sep 30 00:44:55 2023.
