 Gaussian 16, Revision B.01,

 ---------------------------------------
 # b3lyp/gen opt freq CPHF(Grid=OneStep)
 ---------------------------------------

 ----------------------
 pyrrole, B3LYP/pcseg-2
 ----------------------
 Symbolic Z-matrix:
 Charge =  0 Multiplicity = 1

 SCF Done:  E(RB3LYP) =  -210.256216687     A.U. after   12 cycles
 Optimization completed.
    -- Stationary point found.
 Normal termination of Gaussian 16 at Sat Sep 30 03:40:19 2023.

 ------------------------------------------------------------------
 #N Geom=AllCheck Guess=TCheck SCRF=Check GenChk RB3LYP/ChkBas Freq
 ------------------------------------------------------------------

 Structure from the checkpoint file:  "pyrrole.chk"
 ----------------------
 pyrrole, B3LYP/pcseg-2
 ----------------------
 Charge =  0 Multiplicity = 1

 SCF Done:  E(RB3LYP) =  -210.256216687     A.U. after    1 cycles

  Exact polarizability:  33.864   0.000  60.058  -0.000   0.000  58.041
 Approx polarizability:  49.604   0.000  92.215  -0.000   0.000  93.554

                      1                      2                      3
                     B1                     A2                     B1
 Frequencies --    484.4135               630.9152               641.6316
 Red. masses --      1.4321                 3.0296                 2.2437
 Frc consts  --      0.1980                 0.7105                 0.5442
 IR Inten    --     73.3339                 0.0000                 0.0112

                      4                      5                      6
                     A2                     B1                     B1
 Frequencies --    696.5377               733.0353               844.9097
 Red. masses --      1.2995                 1.1921                 1.2521
 Frc consts  --      0.3715                 0.3774                 0.5266
 IR Inten    --      0.0000               162.1781                 1.2232

                      7                      8                      9
                     B2                     A2                     A1
 Frequencies --    882.0848               893.5095               903.5158
 Red. masses --      5.2300                 1.3175                 4.0288
 Frc consts  --      2.3976                 0.6197                 1.9377
 IR Inten    --      1.6916                 0.0000                 0.3656

                     10                     11                     12
                     A1                     B2                     A1
 Frequencies --   1035.1357              1069.6124              1092.3116
 Red. masses --      1.4436                 1.3974                 1.5808
 Frc consts  --      0.9114                 0.9419                 1.1112
 IR Inten    --     32.3759                27.6787                 8.2141

                     13                     14                     15
                     B2                     A1                     B2
 Frequencies --   1158.7536              1173.9478              1318.6944
 Red. masses --      1.2678                 3.5835                 1.3769
 Frc consts  --      1.0030                 2.9097                 1.4107
 IR Inten    --      1.9053                 2.1687                 0.9242

                     16                     17                     18
                     A1                     B2                     A1
 Frequencies --   1416.5882              1447.0067              1500.5062
 Red. masses --      4.1835                 2.9350                 2.6266
 Frc consts  --      4.9463                 3.6208                 3.4844
 IR Inten    --      3.7707                 6.7251                 9.0306

                     19                     20                     21
                     B2                     B2                     A1
 Frequencies --   1575.5604              3238.2004              3249.1127
 Red. masses --      2.9656                 1.0886                 1.0930
 Frc consts  --      4.3375                 6.7253                 6.7986
 IR Inten    --      2.3251                 2.7506                 2.9726

                     22                     23                     24
                     B2                     A1                     A1
 Frequencies --   3264.5484              3270.0541              3674.4834
 Red. masses --      1.0988                 1.1058                 1.0808
 Frc consts  --      6.8993                 6.9671                 8.5975
 IR Inten    --      2.4294                 0.0167                67.0396

 - Thermochemistry -
 -------------------
 Temperature   298.150 Kelvin.  Pressure   1.00000 Atm.
 Atom     1 has atomic number  7 and mass  14.00307

 Molecular mass:    67.04220 amu.
 Principal axes and moments of inertia in atomic units:
                           1         2         3
     Eigenvalues --   196.31419 199.09594 395.41013
           X            0.00000   0.00000   1.00000
           Y            0.00000   1.00000  -0.00000
           Z            1.00000  -0.00000  -0.00000
 This molecule is an asymmetric top.
 Rotational symmetry number  2.
 Rotational temperatures (Kelvin)      0.44120     0.43504     0.21905
 Rotational constants (GHZ):           9.19313     9.06468     4.56423
 Zero-point vibrational energy     216494.6 (Joules/Mol)
                                   51.74345 (Kcal/Mol)
 Warning -- explicit consideration of   1 degrees of freedom as
           vibrations may cause significant error
 Vibrational temperatures:    696.96   907.75   923.16  1002.16  1054.67
          (Kelvin)           1215.64  1269.12  1285.56  1299.96  1489.33
                             1538.93  1571.59  1667.19  1689.05  1897.31
                             2038.15  2081.92  2158.89  2266.88  4659.05
                             4674.75  4696.96  4704.88  5286.76

 Zero-point correction=                           0.082458 (Hartree/Particle)
 Thermal correction to Energy=                    0.086412
 Thermal correction to Enthalpy=                  0.087356
 Thermal correction to Gibbs Free Energy=         0.056733
 Sum of electronic and zero-point Energies=           -210.173758
 Sum of electronic and thermal Energies=              -210.169805
 Sum of electronic and thermal Enthalpies=            -210.168860
 Sum of electronic and thermal Free Energies=         -210.199484

                     E (Thermal)             CV                S
                      KCal/Mol        Cal/Mol-Kelvin    Cal/Mol-Kelvin
 Total                   54.224             14.722             64.452
 Electronic               0.000              0.000              0.000
 Translational            0.889              2.981             38.526
 Rotational               0.889              2.981             22.873
 Vibrational             52.447              8.760              3.053
 Vibration     1          0.841              1.285              0.698

 Optimization completed.
    -- Stationary point found.
 Normal termination of Gaussian 16 at Sat Sep 30 03:44:45 2023.
 Gaussian 16:  ES64L-G16RevB.01 20-Dec-2017

 ---------------------------------
 # rohf/gen geom=check guess=check
 ---------------------------------

 -------------------------
 pyrrole, ROHF/cc-pVTZ-F12
 -------------------------
 Structure from the checkpoint file:  "pyrrole.chk"
 Charge =  0 Multiplicity = 1

                         Standard orientation:
 ---------------------------------------------------------------------
 Center     Atomic      Atomic             Coordinates (Angstroms)
 Number     Number       Type             X           Y           Z
 ---------------------------------------------------------------------
      1          7           0        0.000000   -0.000000    1.119033
      2          1           0        0.000000   -0.000000    2.122068
      3          6           0        0.000000    1.121799    0.330423
      4          6           0       -0.000000   -1.121799    0.330423
      5          6           0        0.000000    0.710612   -0.980058
      6          6           0       -0.000000   -0.710612   -0.980058
      7          1           0        0.000000    2.106858    0.761827
      8          1           0       -0.000000   -2.106858    0.761827
      9          1           0        0.000000    1.355725   -1.841665
     10          1           0       -0.000000   -1.355725   -1.841665
 ---------------------------------------------------------------------

 SCF Done:  E(ROHF) =  -208.898309349     A.U. after   11 cycles

 The electronic state is 1-A1.
 Alpha  occ. eigenvalues --  -15.60372 -11.25066 -11.25062 -11.20790 -11.20685
 Alpha  occ. eigenvalues --   -1.29101  -1.04235  -0.97739  -0.79329  -0.76733
 Alpha  occ. eigenvalues --   -0.73699  -0.59318  -0.58292  -0.56789  -0.54832
 Alpha  occ. eigenvalues --   -0.52833  -0.34753  -0.29866
 Alpha virt. eigenvalues --    0.04265   0.05222   0.05795   0.07053   0.07763
 Alpha virt. eigenvalues --    0.07943   0.10656   0.10714   0.10924   0.11454
 Alpha virt. eigenvalues --    0.12275   0.12761   0.13966   0.15598   0.16671

 Mulliken charges and spin densities:
               1          2
     1  N   -0.547890   0.000000
     2  H    0.302886   0.000000
     3  C   -0.002767   0.000000
     4  C   -0.002767   0.000000
     5  C   -0.205621   0.000000
     6  C   -0.205621   0.000000
     7  H    0.170294   0.000000
     8  H    0.170294   0.000000
     9  H    0.160595   0.000000
    10  H    0.160595   0.000000
 Sum of Mulliken charges =  -0.00000   0.00000

 Dipole moment (field-independent basis, Debye):
    X=             -0.0000    Y=              0.0000    Z=              1.8537  Tot=              1.8537
 Quadrupole moment (field-independent basis, Debye-Ang):
   XX=            -34.7837   YY=            -27.0616   ZZ=            -23.9478
   XY=              0.0000   XZ=             -0.0000   YZ=             -0.0000

 Normal termination of Gaussian 16 at Sat Sep 30 03:46:24 2023.
