 Gaussian 16, Revision B.01,
 Gaussian 16:  ES64L-G16RevB.01 20-Dec-2017

 --------------------
 # b3lyp/gen opt freq
 --------------------

 ----------------------
 pyrrole, B3LYP/pcseg-2
 ----------------------
 Symbolic Z-matrix:
 Charge =  0 Multiplicity = 1

 SCF Done:  E(RB3LYP) =  -210.256032904     A.U. after   12 cycles
 SCF Done:  E(RB3LYP) =  -210.256214882     A.U. after    8 cycles
 SCF Done:  E(RB3LYP) =  -210.256216687     A.U. after    7 cycles
 Optimization completed.
    -- Stationary point found.
 Normal termination of Gaussian 16 at Fri Feb 25 08:37:53 2022.

 ------------------------------------------------------------------
 #N Geom=AllCheck Guess=TCheck SCRF=Check GenChk RB3LYP/ChkBas Freq
 ------------------------------------------------------------------

 Structure from the checkpoint file:  "/wrk/irikura/Gau-25533.chk"
 ----------------------
 pyrrole, B3LYP/pcseg-2
 ----------------------
 Charge =  0 Multiplicity = 1

                         Standard orientation:
 ---------------------------------------------------------------------
 Center     Atomic      Atomic             Coordinates (Angstroms)
 Number     Number       Type             X           Y           Z
 ---------------------------------------------------------------------
      1          7           0        0.000000    0.000000    1.119033
      2          1           0        0.000000    0.000000    2.122068
      3          6           0        0.000000    1.121799    0.330423
      4          6           0       -0.000000   -1.121799    0.330423
      5          6           0       -0.000000    0.710612   -0.980058
      6          6           0       -0.000000   -0.710612   -0.980058
      7          1           0        0.000000    2.106858    0.761827
      8          1           0       -0.000000   -2.106858    0.761827
      9          1           0       -0.000000    1.355725   -1.841665
     10          1           0       -0.000000   -1.355725   -1.841665
 ---------------------------------------------------------------------

 SCF Done:  E(RB3LYP) =  -210.256216687     A.U. after    1 cycles

 The electronic state is 1-A1.
 Alpha  occ. eigenvalues --  -14.35923 -10.18990 -10.18989 -10.15308 -10.15259
 Alpha  occ. eigenvalues --   -0.97795  -0.77405  -0.72194  -0.59220  -0.56703
 Alpha  occ. eigenvalues --   -0.54695  -0.43308  -0.42606  -0.41107  -0.39185
 Alpha  occ. eigenvalues --   -0.37796  -0.24946  -0.21853
 Alpha virt. eigenvalues --    0.00840   0.02521   0.04618   0.04715   0.06555
 Alpha virt. eigenvalues --    0.06825   0.07349   0.13138   0.15100   0.16879
 Alpha virt. eigenvalues --    0.17536   0.18356   0.18966   0.20995   0.22817

 Mulliken charges:
               1
     1  N   -0.235774
     2  H    0.133708
     3  C    0.067149
     4  C    0.067149
     5  C   -0.067402
     6  C   -0.067402
     7  H    0.039108
     8  H    0.039108
     9  H    0.012178
    10  H    0.012178
 Sum of Mulliken charges =  -0.00000

 Dipole moment (field-independent basis, Debye):
    X=             -0.0000    Y=              0.0000    Z=              1.8998  Tot=              1.8998
 Quadrupole moment (field-independent basis, Debye-Ang):
   XX=            -34.2187   YY=            -27.3306   ZZ=            -24.0682
   XY=              0.0000   XZ=             -0.0000   YZ=             -0.0000

  Exact polarizability:  33.861   0.000  60.059  -0.000   0.000  58.041
 Approx polarizability:  49.604   0.000  92.215  -0.000   0.000  93.554

                      1                      2                      3
                     B1                     A2                     B1
 Frequencies --    484.4207               630.9140               641.6307
 Red. masses --      1.4321                 3.0296                 2.2437
 Frc consts  --      0.1980                 0.7105                 0.5442
 IR Inten    --     73.3445                 0.0000                 0.0113

                      4                      5                      6
                     A2                     B1                     B1
 Frequencies --    696.5386               733.0348               844.9114
 Red. masses --      1.2995                 1.1921                 1.2521
 Frc consts  --      0.3715                 0.3774                 0.5266
 IR Inten    --      0.0000               162.1758                 1.2240

                      7                      8                      9
                     B2                     A2                     A1
 Frequencies --    882.0821               893.5081               903.5223
 Red. masses --      5.2300                 1.3175                 4.0288
 Frc consts  --      2.3976                 0.6197                 1.9378
 IR Inten    --      1.6910                 0.0000                 0.3654

                     10                     11                     12
                     A1                     B2                     A1
 Frequencies --   1035.1346              1069.6062              1092.3138
 Red. masses --      1.4436                 1.3974                 1.5807
 Frc consts  --      0.9114                 0.9420                 1.1112
 IR Inten    --     32.3764                27.6874                 8.2164

                     13                     14                     15
                     B2                     A1                     B2
 Frequencies --   1158.7507              1173.9480              1318.6926
 Red. masses --      1.2678                 3.5836                 1.3769
 Frc consts  --      1.0030                 2.9098                 1.4107
 IR Inten    --      1.9067                 2.1690                 0.9251

                     16                     17                     18
                     A1                     B2                     A1
 Frequencies --   1416.5898              1447.0003              1500.5070
 Red. masses --      4.1834                 2.9348                 2.6267
 Frc consts  --      4.9462                 3.6204                 3.4845
 IR Inten    --      3.7714                 6.7190                 9.0331

                     19                     20                     21
                     B2                     B2                     A1
 Frequencies --   1575.5559              3238.2027              3249.1139
 Red. masses --      2.9657                 1.0886                 1.0930
 Frc consts  --      4.3375                 6.7253                 6.7986
 IR Inten    --      2.3222                 2.7508                 2.9730

                     22                     23                     24
                     B2                     A1                     A1
 Frequencies --   3264.5506              3270.0561              3674.4882
 Red. masses --      1.0988                 1.1058                 1.0808
 Frc consts  --      6.8993                 6.9672                 8.5976
 IR Inten    --      2.4280                 0.0168                67.0368

 - Thermochemistry -
 -------------------
 Temperature   298.150 Kelvin.  Pressure   1.00000 Atm.
 Atom     1 has atomic number  7 and mass  14.00307

 Molecular mass:    67.04220 amu.
 Principal axes and moments of inertia in atomic units:
                           1         2         3
     Eigenvalues --   196.31424 199.09600 395.41023
           X            0.00000   0.00000   1.00000
           Y            0.00000   1.00000   0.00000
           Z            1.00000   0.00000   0.00000
 This molecule is an asymmetric top.
 Rotational symmetry number  2.
 Rotational temperatures (Kelvin)      0.44120     0.43504     0.21905
 Rotational constants (GHZ):           9.19312     9.06468     4.56422
 Zero-point vibrational energy     216494.6 (Joules/Mol)
                                   51.74345 (Kcal/Mol)
 Warning -- explicit consideration of   1 degrees of freedom as
           vibrations may cause significant error
 Vibrational temperatures:    696.97   907.74   923.16  1002.16  1054.67
          (Kelvin)           1215.64  1269.12  1285.56  1299.97  1489.33
                             1538.92  1571.60  1667.18  1689.05  1897.30
                             2038.16  2081.91  2158.89  2266.87  4659.05
                             4674.75  4696.96  4704.88  5286.77

 Zero-point correction=                           0.082458 (Hartree/Particle)
 Thermal correction to Energy=                    0.086412
 Thermal correction to Enthalpy=                  0.087356
 Thermal correction to Gibbs Free Energy=         0.056733
 Sum of electronic and zero-point Energies=           -210.173758
 Sum of electronic and thermal Energies=              -210.169804
 Sum of electronic and thermal Enthalpies=            -210.168860
 Sum of electronic and thermal Free Energies=         -210.199484

                     E (Thermal)             CV                S
                      KCal/Mol        Cal/Mol-Kelvin    Cal/Mol-Kelvin
 Total                   54.224             14.722             64.452
 Electronic               0.000              0.000              0.000
 Translational            0.889              2.981             38.526
 Rotational               0.889              2.981             22.873
 Vibrational             52.447              8.760              3.053
 Vibration     1          0.841              1.285              0.698

 Optimization completed.
    -- Stationary point found.
 Normal termination of Gaussian 16 at Fri Feb 25 08:40:24 2022.
