 Gaussian 16, Revision B.01,
 Gaussian 16:  ES64L-G16RevB.01 20-Dec-2017

 --------------------
 # b3lyp/gen opt freq
 --------------------

 --------------------------
 sulfur atom, B3LYP/pcseg-2
 --------------------------
 Symbolic Z-matrix:
 Charge =  0 Multiplicity = 3

 SCF Done:  E(UB3LYP) =  -398.141514326     A.U. after    9 cycles
 Optimization completed.
    -- Stationary point found.
 Normal termination of Gaussian 16 at Fri Feb  4 08:37:48 2022.

 ------------------------------------------------------------------
 #N Geom=AllCheck Guess=TCheck SCRF=Check GenChk UB3LYP/ChkBas Freq
 ------------------------------------------------------------------

 Structure from the checkpoint file:  "/wrk/irikura/Gau-24373.chk"
 --------------------------
 sulfur atom, B3LYP/pcseg-2
 --------------------------
 Charge =  0 Multiplicity = 3

                         Standard orientation:
 ---------------------------------------------------------------------
 Center     Atomic      Atomic             Coordinates (Angstroms)
 Number     Number       Type             X           Y           Z
 ---------------------------------------------------------------------
      1         16           0        0.000000    0.000000    0.000000
 ---------------------------------------------------------------------

 SCF Done:  E(UB3LYP) =  -398.141514326     A.U. after    1 cycles

 Unable to determine electronic state:  an orbital has unidentified symmetry.
 Alpha  occ. eigenvalues --  -88.90155  -7.98919  -5.95753  -5.95753  -5.93850
 Alpha  occ. eigenvalues --   -0.72657  -0.33608  -0.33608  -0.28897
 Alpha virt. eigenvalues --    0.22442   0.22442   0.24313   0.38799   0.45240
 Alpha virt. eigenvalues --    0.45240   0.48955   0.48955   0.50357   1.70149
 Alpha virt. eigenvalues --    1.70149   1.73873   1.84044   1.84044   1.87040

  Beta  occ. eigenvalues --  -88.89005  -7.97791  -5.93523  -5.93523  -5.93185
  Beta  occ. eigenvalues --   -0.63407  -0.26403
  Beta virt. eigenvalues --   -0.17933  -0.17933   0.24987   0.25799   0.25799
  Beta virt. eigenvalues --    0.42229   0.54408   0.54408   0.54560   0.55773
  Beta virt. eigenvalues --    0.55773   1.75285   1.75584   1.75584   1.93496

 Mulliken charges and spin densities:
               1          2
     1  S   -0.000000   2.000000
 Sum of Mulliken charges =  -0.00000   2.00000

 Dipole moment (field-independent basis, Debye):
    X=              0.0000    Y=              0.0000    Z=              0.0000  Tot=              0.0000
 Quadrupole moment (field-independent basis, Debye-Ang):
   XX=            -12.1255   YY=            -14.9980   ZZ=            -12.1255
   XY=              0.0000   XZ=              0.0000   YZ=             -0.0000

  Exact polarizability:   8.627  -0.000   8.296   0.000  -0.000   8.627
 Approx polarizability:  12.601  -0.000  10.073  -0.000  -0.000  12.601

 - Thermochemistry -
 -------------------
 Temperature   298.150 Kelvin.  Pressure   1.00000 Atm.
 Atom     1 has atomic number 16 and mass  31.97207
 Molecular mass:    31.97207 amu.
 Zero-point vibrational energy          0.0 (Joules/Mol)
                                    0.00000 (Kcal/Mol)
 Vibrational temperatures:
          (Kelvin)

 Zero-point correction=                           0.000000 (Hartree/Particle)
 Thermal correction to Energy=                    0.001416
 Thermal correction to Enthalpy=                  0.002360
 Thermal correction to Gibbs Free Energy=        -0.015933
 Sum of electronic and zero-point Energies=           -398.141514
 Sum of electronic and thermal Energies=              -398.140098
 Sum of electronic and thermal Enthalpies=            -398.139154
 Sum of electronic and thermal Free Energies=         -398.157447

                     E (Thermal)             CV                S
                      KCal/Mol        Cal/Mol-Kelvin    Cal/Mol-Kelvin
 Total                    0.889              2.981             38.502
 Electronic               0.000              0.000              2.183
 Translational            0.889              2.981             36.319
 Rotational               0.000              0.000              0.000
 Vibrational              0.000              0.000              0.000

 Optimization completed.
    -- Stationary point found.
 Normal termination of Gaussian 16 at Fri Feb  4 08:37:52 2022.
