 Gaussian 16, Revision B.01,
 Gaussian 16:  ES64L-G16RevB.01 20-Dec-2017

 --------------------
 # b3lyp/gen opt freq
 --------------------

 -----------------
 S2, B3LYP/pcseg-2
 -----------------
 Symbolic Z-matrix:
 Charge =  0 Multiplicity = 3

 SCF Done:  E(UB3LYP) =  -796.443350179     A.U. after   11 cycles
 SCF Done:  E(UB3LYP) =  -796.443377316     A.U. after    7 cycles
 SCF Done:  E(UB3LYP) =  -796.443381505     A.U. after    7 cycles
 Optimization completed.
    -- Stationary point found.
 Normal termination of Gaussian 16 at Tue Sep 12 11:24:18 2023.

 ------------------------------------------------------------------
 #N Geom=AllCheck Guess=TCheck SCRF=Check GenChk UB3LYP/ChkBas Freq
 ------------------------------------------------------------------

 Structure from the checkpoint file:  "/wrk/irikura/Gau-337355.chk"
 -----------------
 S2, B3LYP/pcseg-2
 -----------------
 Charge =  0 Multiplicity = 3

                         Standard orientation:
 ---------------------------------------------------------------------
 Center     Atomic      Atomic             Coordinates (Angstroms)
 Number     Number       Type             X           Y           Z
 ---------------------------------------------------------------------
      1         16           0        0.000000    0.000000    0.953767
      2         16           0        0.000000    0.000000   -0.953767
 ---------------------------------------------------------------------

 SCF Done:  E(UB3LYP) =  -796.443381505     A.U. after    1 cycles

 The electronic state is 3-SGG.
 Alpha  occ. eigenvalues --  -88.89584 -88.89584  -7.98568  -7.98549  -5.94664
 Alpha  occ. eigenvalues --   -5.94664  -5.94658  -5.94658  -5.94572  -5.94496
 Alpha  occ. eigenvalues --   -0.84259  -0.63791  -0.40292  -0.38197  -0.38197
 Alpha  occ. eigenvalues --   -0.25186  -0.25186
 Alpha virt. eigenvalues --   -0.01704   0.16078   0.21326   0.21326   0.22313
 Alpha virt. eigenvalues --    0.26659   0.26659   0.35304   0.35304   0.35429
 Alpha virt. eigenvalues --    0.43594   0.43594   0.52456   0.52456   0.60511

  Beta  occ. eigenvalues --  -88.88943 -88.88943  -7.97946  -7.97924  -5.94227
  Beta  occ. eigenvalues --   -5.94149  -5.93424  -5.93424  -5.93418  -5.93418
  Beta  occ. eigenvalues --   -0.81484  -0.58297  -0.38100  -0.33282  -0.33282
  Beta virt. eigenvalues --   -0.14421  -0.14421  -0.00057   0.16773   0.22360
  Beta virt. eigenvalues --    0.22360   0.23139   0.28665   0.28665   0.36661
  Beta virt. eigenvalues --    0.38581   0.38581   0.48558   0.48559   0.58224

 Mulliken charges and spin densities:
               1          2
     1  S   -0.000000   1.000000
     2  S    0.000000   1.000000
 Sum of Mulliken charges =  -0.00000   2.00000

 Dipole moment (field-independent basis, Debye):
    X=             -0.0000    Y=              0.0000    Z=              0.0000  Tot=              0.0000
 Quadrupole moment (field-independent basis, Debye-Ang):
   XX=            -25.9397   YY=            -25.9397   ZZ=            -24.5458
   XY=              0.0000   XZ=              0.0000   YZ=              0.0000

  Exact polarizability:  16.271  -0.000  16.271  -0.000   0.000  54.079
 Approx polarizability:  24.847  -0.000  24.847  -0.000  -0.000 114.039

                      1
                     SGG
 Frequencies --    710.3817
 Red. masses --     31.9721
 Frc consts  --      9.5061
 IR Inten    --      0.0000

 - Thermochemistry -
 -------------------
 Temperature   298.150 Kelvin.  Pressure   1.00000 Atm.
 Atom     1 has atomic number 16 and mass  31.97207

 Molecular mass:    63.94414 amu.
 Principal axes and moments of inertia in atomic units:
                           1         2         3
     Eigenvalues --    -0.00000 207.72236 207.72236
           X           -0.00000   1.00000  -0.00000
           Y            0.00000   0.00000   1.00000
           Z            1.00000   0.00000  -0.00000
 This molecule is a prolate symmetric top.
 Rotational symmetry number  2.
 Rotational temperature (Kelvin)      0.41697
 Rotational constant (GHZ):           8.688237
 Zero-point vibrational energy       4249.0 (Joules/Mol)
                                    1.01554 (Kcal/Mol)
 Vibrational temperatures:   1022.08
          (Kelvin)

 Zero-point correction=                           0.001618 (Hartree/Particle)
 Thermal correction to Energy=                    0.004087
 Thermal correction to Enthalpy=                  0.005032
 Thermal correction to Gibbs Free Energy=        -0.020879
 Sum of electronic and zero-point Energies=           -796.441763
 Sum of electronic and thermal Energies=              -796.439294
 Sum of electronic and thermal Enthalpies=            -796.438350
 Sum of electronic and thermal Free Energies=         -796.464260

                     E (Thermal)             CV                S
                      KCal/Mol        Cal/Mol-Kelvin    Cal/Mol-Kelvin
 Total                    2.565              5.777             54.533
 Electronic               0.000              0.000              2.183
 Translational            0.889              2.981             38.385
 Rotational               0.592              1.987             13.670
 Vibrational              1.084              0.809              0.294

 Optimization completed.
    -- Stationary point found.
 Normal termination of Gaussian 16 at Tue Sep 12 11:24:32 2023.
