 Gaussian 16, Revision B.01,
 Gaussian 16:  ES64L-G16RevB.01 20-Dec-2017

 --------------------
 # b3lyp/gen opt freq
 --------------------

 --------------------------------
 disulfur monoxide, B3LYP/pcseg-2
 --------------------------------
 Symbolic Z-matrix:
 Charge =  0 Multiplicity = 1

 SCF Done:  E(RB3LYP) =  -871.687551446     A.U. after   15 cycles
 SCF Done:  E(RB3LYP) =  -871.688010274     A.U. after   10 cycles
 SCF Done:  E(RB3LYP) =  -871.688078812     A.U. after    9 cycles
 SCF Done:  E(RB3LYP) =  -871.688079820     A.U. after    8 cycles
 Optimization completed.
    -- Stationary point found.
 Normal termination of Gaussian 16 at Tue Sep 12 11:25:17 2023.

 ------------------------------------------------------------------
 #N Geom=AllCheck Guess=TCheck SCRF=Check GenChk RB3LYP/ChkBas Freq
 ------------------------------------------------------------------

 Structure from the checkpoint file:  "/wrk/irikura/Gau-337370.chk"
 --------------------------------
 disulfur monoxide, B3LYP/pcseg-2
 --------------------------------
 Charge =  0 Multiplicity = 1

                         Standard orientation:
 ---------------------------------------------------------------------
 Center     Atomic      Atomic             Coordinates (Angstroms)
 Number     Number       Type             X           Y           Z
 ---------------------------------------------------------------------
      1          8           0        1.458700    0.802981    0.000000
      2         16           0        0.000000    0.676918    0.000000
      3         16           0       -0.729350   -1.078408    0.000000
 ---------------------------------------------------------------------

 SCF Done:  E(RB3LYP) =  -871.688079820     A.U. after    1 cycles

 The electronic state is 1-A'.
 Alpha  occ. eigenvalues --  -89.00042 -88.87820 -19.17500  -8.07766  -7.97120
 Alpha  occ. eigenvalues --   -6.03985  -6.03882  -6.03439  -5.93262  -5.93192
 Alpha  occ. eigenvalues --   -5.92544  -1.09423  -0.82638  -0.61533  -0.47048
 Alpha  occ. eigenvalues --   -0.46178  -0.46116  -0.32222  -0.31855  -0.29175
 Alpha virt. eigenvalues --   -0.15770  -0.01114   0.01421   0.16935   0.19418
 Alpha virt. eigenvalues --    0.19651   0.22584   0.25786   0.26958   0.31774
 Alpha virt. eigenvalues --    0.33616   0.34964   0.35711   0.37364   0.45278

 Mulliken charges:
               1
     1  O   -0.411762
     2  S    0.537127
     3  S   -0.125365
 Sum of Mulliken charges =   0.00000

 Dipole moment (field-independent basis, Debye):
    X=             -1.6173    Y=              0.3578    Z=              0.0000  Tot=              1.6564
 Quadrupole moment (field-independent basis, Debye-Ang):
   XX=            -34.9142   YY=            -30.3916   ZZ=            -29.0318
   XY=             -1.1850   XZ=              0.0000   YZ=              0.0000

  Exact polarizability:  38.968  17.301  49.596  -0.000   0.000  18.781
 Approx polarizability:  87.646  57.277 117.717  -0.000  -0.000  31.493

                      1                      2                      3
                     A'                     A'                     A'
 Frequencies --    384.6926               682.6965              1184.0211
 Red. masses --     21.0405                30.8178                19.3798
 Frc consts  --      1.8346                 8.4627                16.0073
 IR Inten    --     10.1076                52.1903               175.6216

 - Thermochemistry -
 -------------------
 Temperature   298.150 Kelvin.  Pressure   1.00000 Atm.
 Atom     1 has atomic number  8 and mass  15.99491

 Molecular mass:    79.93906 amu.
 Principal axes and moments of inertia in atomic units:
                           1         2         3
     Eigenvalues --    44.14432 360.05512 404.19943
           X            0.66124   0.75017   0.00000
           Y            0.75017  -0.66124   0.00000
           Z            0.00000  -0.00000   1.00000
 This molecule is an asymmetric top.
 Rotational symmetry number  1.
 Rotational temperatures (Kelvin)      1.96206     0.24056     0.21429
 Rotational constants (GHZ):          40.88275     5.01240     4.46498
 Zero-point vibrational energy      13466.4 (Joules/Mol)
                                    3.21855 (Kcal/Mol)
 Warning -- explicit consideration of   1 degrees of freedom as
           vibrations may cause significant error
 Vibrational temperatures:    553.49   982.25  1703.54
          (Kelvin)

 Zero-point correction=                           0.005129 (Hartree/Particle)
 Thermal correction to Energy=                    0.008424
 Thermal correction to Enthalpy=                  0.009368
 Thermal correction to Gibbs Free Energy=        -0.020955
 Sum of electronic and zero-point Energies=           -871.682951
 Sum of electronic and thermal Energies=              -871.679656
 Sum of electronic and thermal Enthalpies=            -871.678712
 Sum of electronic and thermal Free Energies=         -871.709035

                     E (Thermal)             CV                S
                      KCal/Mol        Cal/Mol-Kelvin    Cal/Mol-Kelvin
 Total                    5.286              8.543             63.821
 Electronic               0.000              0.000              0.000
 Translational            0.889              2.981             39.051
 Rotational               0.889              2.981             23.378
 Vibrational              3.509              2.581              1.392
 Vibration     1          0.754              1.503              1.021

 Optimization completed.
    -- Stationary point found.
 Normal termination of Gaussian 16 at Tue Sep 12 11:25:59 2023.
