 Gaussian 16, Revision B.01,
 Gaussian 16:  ES64L-G16RevB.01 20-Dec-2017

 ---------------------------------------
 # b3lyp/gen opt freq CPHF(Grid=OneStep)
 ---------------------------------------

 ------------------------------
 octasulfur, D4d, B3LYP/pcseg-2
 ------------------------------
 Symbolic Z-matrix:
 Charge =  0 Multiplicity = 1

 SCF Done:  E(RB3LYP) =  -3185.88532194     A.U. after   10 cycles
 SCF Done:  E(RB3LYP) =  -3185.88713746     A.U. after    9 cycles
 SCF Done:  E(RB3LYP) =  -3185.88741812     A.U. after    7 cycles
 Optimization completed.
    -- Stationary point found.
 Normal termination of Gaussian 16 at Fri Sep 22 17:50:51 2023.

 ------------------------------------------------------------------
 #N Geom=AllCheck Guess=TCheck SCRF=Check GenChk RB3LYP/ChkBas Freq
 ------------------------------------------------------------------

 Structure from the checkpoint file:  "/wrk/irikura/Gau-1149494.chk"
 ------------------------------
 octasulfur, D4d, B3LYP/pcseg-2
 ------------------------------
 Charge =  0 Multiplicity = 1

                         Standard orientation:
 ---------------------------------------------------------------------
 Center     Atomic      Atomic             Coordinates (Angstroms)
 Number     Number       Type             X           Y           Z
 ---------------------------------------------------------------------
      1         16           0        0.000000    2.392275    0.493207
      2         16           0        2.392275   -0.000000    0.493207
      3         16           0       -0.000000   -2.392275    0.493207
      4         16           0       -2.392275    0.000000    0.493207
      5         16           0       -1.691594    1.691594   -0.493207
      6         16           0       -1.691594   -1.691594   -0.493207
      7         16           0        1.691594   -1.691594   -0.493207
      8         16           0        1.691594    1.691594   -0.493207
 ---------------------------------------------------------------------

 SCF Done:  E(RB3LYP) =  -3185.88741812     A.U. after    1 cycles

 The electronic state is 1-A1.
 Alpha  occ. eigenvalues --  -88.90853 -88.90853 -88.90853 -88.90853 -88.90853
 Alpha  occ. eigenvalues --  -88.90853 -88.90853 -88.90853  -7.99694  -7.99692
 Alpha  occ. eigenvalues --   -7.99692  -7.99687  -7.99687  -7.99682  -7.99682
 Alpha  occ. eigenvalues --   -7.99680  -5.96039  -5.96034  -5.96034  -5.96022
 Alpha  occ. eigenvalues --   -5.96022  -5.96009  -5.96009  -5.96004  -5.95694
 Alpha  occ. eigenvalues --   -5.95691  -5.95691  -5.95684  -5.95684  -5.95678
 Alpha  occ. eigenvalues --   -5.95678  -5.95676  -5.95069  -5.95069  -5.95069
 Alpha  occ. eigenvalues --   -5.95069  -5.95069  -5.95069  -5.95069  -5.95069
 Alpha  occ. eigenvalues --   -0.87858  -0.84769  -0.84769  -0.76566  -0.76566
 Alpha  occ. eigenvalues --   -0.65385  -0.65385  -0.57906  -0.47653  -0.45213
 Alpha  occ. eigenvalues --   -0.45213  -0.41984  -0.39109  -0.39109  -0.38588
 Alpha  occ. eigenvalues --   -0.38588  -0.35050  -0.29616  -0.29616  -0.28866
 Alpha  occ. eigenvalues --   -0.28866  -0.27833  -0.27833  -0.27341
 Alpha virt. eigenvalues --   -0.09611  -0.09611  -0.08251  -0.04859  -0.04859
 Alpha virt. eigenvalues --   -0.04755  -0.04490  -0.04490   0.14052   0.15284
 Alpha virt. eigenvalues --    0.15284   0.16746   0.16746   0.17679   0.17679

 Mulliken charges:
               1
     1  S    0.000000
     2  S    0.000000
     3  S    0.000000
     4  S    0.000000
     5  S    0.000000
     6  S    0.000000
     7  S    0.000000
     8  S    0.000000
 Sum of Mulliken charges =   0.00000

 Dipole moment (field-independent basis, Debye):
    X=              0.0000    Y=             -0.0000    Z=              0.0000  Tot=              0.0000
 Quadrupole moment (field-independent basis, Debye-Ang):
   XX=           -104.0868   YY=           -104.0868   ZZ=           -104.6697
   XY=             -0.0000   XZ=              0.0000   YZ=             -0.0000

  Exact polarizability: 179.594  -0.000 179.594  -0.000   0.000  92.831
 Approx polarizability: 358.743   0.000 358.743   0.000   0.000 182.448

                      1                      2                      3
                     E2                     E2                     E2
 Frequencies --     71.9962                71.9962               144.0175
 Red. masses --     31.9721                31.9721                31.9721
 Frc consts  --      0.0976                 0.0976                 0.3907
 IR Inten    --      0.0000                 0.0000                 0.0000

                      4                      5                      6
                     E2                     E1                     E1
 Frequencies --    144.0175               188.5713               188.5713
 Red. masses --     31.9721                31.9721                31.9721
 Frc consts  --      0.3907                 0.6698                 0.6698
 IR Inten    --      0.0000                 4.5604                 4.5604

                      7                      8                      9
                     A1                     B2                     E3
 Frequencies --    211.4910               241.9732               246.6364
 Red. masses --     31.9721                31.9721                31.9721
 Frc consts  --      0.8426                 1.1029                 1.1459
 IR Inten    --      0.0000                 4.5506                 0.0000

                     10                     11                     12
                     E3                     B1                     E3
 Frequencies --    246.6364               369.1789               399.2939
 Red. masses --     31.9721                31.9721                31.9721
 Frc consts  --      1.1459                 2.5674                 3.0034
 IR Inten    --      0.0000                 0.0000                 0.0000

                     13                     14                     15
                     E3                     E2                     E2
 Frequencies --    399.2939               451.0255               451.0255
 Red. masses --     31.9721                31.9721                31.9721
 Frc consts  --      3.0034                 3.8320                 3.8320
 IR Inten    --      0.0000                 0.0000                 0.0000

                     16                     17                     18
                     E1                     E1                     A1
 Frequencies --    456.9125               456.9125               466.6698
 Red. masses --     31.9721                31.9721                31.9721
 Frc consts  --      3.9327                 3.9327                 4.1024
 IR Inten    --      2.6221                 2.6221                 0.0000

 - Thermochemistry -
 -------------------
 Temperature   298.150 Kelvin.  Pressure   1.00000 Atm.
 Atom     1 has atomic number 16 and mass  31.97207

 Molecular mass:   255.77657 amu.
 Principal axes and moments of inertia in atomic units:
                           1         2         3
     Eigenvalues --  2835.855912835.855915227.33896
           X            0.97014   0.24254   0.00000
           Y           -0.24254   0.97014   0.00000
           Z            0.00000  -0.00000   1.00000
 This molecule is an oblate symmetric top.
 Rotational symmetry number  8.
 Warning -- assumption of classical behavior for rotation
           may cause significant error
 Rotational temperatures (Kelvin)      0.03054     0.03054     0.01657
 Rotational constants (GHZ):           0.63640     0.63640     0.34525
 Zero-point vibrational energy      31140.1 (Joules/Mol)
                                    7.44266 (Kcal/Mol)
 Warning -- explicit consideration of  18 degrees of freedom as
           vibrations may cause significant error
 Vibrational temperatures:    103.59   103.59   207.21   207.21   271.31
          (Kelvin)            271.31   304.29   348.15   354.85   354.85
                              531.17   574.49   574.49   648.93   648.93
                              657.40   657.40   671.43

 Zero-point correction=                           0.011861 (Hartree/Particle)
 Thermal correction to Energy=                    0.023013
 Thermal correction to Enthalpy=                  0.023958
 Thermal correction to Gibbs Free Energy=        -0.024932
 Sum of electronic and zero-point Energies=          -3185.875557
 Sum of electronic and thermal Energies=             -3185.864405
 Sum of electronic and thermal Enthalpies=           -3185.863460
 Sum of electronic and thermal Free Energies=        -3185.912350

                     E (Thermal)             CV                S
                      KCal/Mol        Cal/Mol-Kelvin    Cal/Mol-Kelvin
 Total                   14.441             35.773            102.897
 Electronic               0.000              0.000              0.000
 Translational            0.889              2.981             42.517
 Rotational               0.889              2.981             27.976
 Vibrational             12.664             29.811             32.404
 Vibration     1          0.598              1.967              4.098
 Vibration     2          0.598              1.967              4.098
 Vibration     3          0.616              1.909              2.750
 Vibration     4          0.616              1.909              2.750
 Vibration     5          0.633              1.856              2.242
 Vibration     6          0.633              1.856              2.242
 Vibration     7          0.643              1.823              2.031
 Vibration     8          0.658              1.776              1.788
 Vibration     9          0.661              1.768              1.754
 Vibration    10          0.661              1.768              1.754
 Vibration    11          0.741              1.536              1.083
 Vibration    12          0.765              1.472              0.965
 Vibration    13          0.765              1.472              0.965
 Vibration    14          0.810              1.359              0.793
 Vibration    15          0.810              1.359              0.793
 Vibration    16          0.815              1.346              0.775
 Vibration    17          0.815              1.346              0.775
 Vibration    18          0.824              1.324              0.747

 Optimization completed.
    -- Stationary point found.
 Normal termination of Gaussian 16 at Fri Sep 22 17:51:55 2023.
