 Gaussian 16, Revision B.01,

 ---------------------------------------
 # b3lyp/gen opt freq CPHF(Grid=OneStep)
 ---------------------------------------

 ----------------------
 2-butyl, B3LYP/pcseg-2
 ----------------------
 Symbolic Z-matrix:
 Charge =  0 Multiplicity = 2

 SCF Done:  E(UB3LYP) =  -157.858799756     A.U. after   13 cycles
 Optimization completed.
    -- Stationary point found.
 Normal termination of Gaussian 16 at Sat Sep 30 23:16:30 2023.

 ------------------------------------------------------------------
 #N Geom=AllCheck Guess=TCheck SCRF=Check GenChk UB3LYP/ChkBas Freq
 ------------------------------------------------------------------

 Structure from the checkpoint file:  "sBu.chk"
 ----------------------
 2-butyl, B3LYP/pcseg-2
 ----------------------
 Charge =  0 Multiplicity = 2

 SCF Done:  E(UB3LYP) =  -157.858799756     A.U. after    1 cycles

  Exact polarizability:  61.028  -0.474  49.692   0.067  -0.420  44.501
 Approx polarizability:  69.457  -0.093  68.853  -0.030  -0.388  63.456

                      1                      2                      3
                      A                      A                      A
 Frequencies --     59.2047               101.8650               230.3857
 Red. masses --      1.8946                 1.0732                 1.0858
 Frc consts  --      0.0039                 0.0066                 0.0340
 IR Inten    --      0.0827                 0.4472                 0.6128

                      4                      5                      6
                      A                      A                      A
 Frequencies --    258.4602               369.4314               432.0111
 Red. masses --      2.1544                 1.3833                 2.7332
 Frc consts  --      0.0848                 0.1112                 0.3005
 IR Inten    --      1.3821                23.7903                 0.1803

                      7                      8                      9
                      A                      A                      A
 Frequencies --    769.0593               847.9436               976.7290
 Red. masses --      1.1824                 1.9764                 1.2561
 Frc consts  --      0.4120                 0.8372                 0.7060
 IR Inten    --      0.8774                 0.3049                 1.1200

                     10                     11                     12
                      A                      A                      A
 Frequencies --    990.5239              1025.8926              1069.7158
 Red. masses --      1.2756                 2.9209                 1.4480
 Frc consts  --      0.7374                 1.8112                 0.9763
 IR Inten    --      2.7588                 0.1530                 0.9736

                     13                     14                     15
                      A                      A                      A
 Frequencies --   1129.2951              1181.5424              1269.9038
 Red. masses --      2.1579                 2.0730                 1.1963
 Frc consts  --      1.6214                 1.7051                 1.1366
 IR Inten    --      0.4177                 0.1973                 0.1311

                     16                     17                     18
                      A                      A                      A
 Frequencies --   1317.1790              1403.0987              1409.9601
 Red. masses --      1.3245                 1.2827                 1.3984
 Frc consts  --      1.3539                 1.4878                 1.6379
 IR Inten    --      6.5152                 1.7920                 0.1060

                     19                     20                     21
                      A                      A                      A
 Frequencies --   1416.1255              1466.7103              1472.2443
 Red. masses --      1.4177                 1.0667                 1.0628
 Frc consts  --      1.6751                 1.3520                 1.3572
 IR Inten    --      3.9364                 0.6426                 7.3532

                     22                     23                     24
                      A                      A                      A
 Frequencies --   1483.9479              1497.4212              1503.5423
 Red. masses --      1.0480                 1.0393                 1.0542
 Frc consts  --      1.3597                 1.3730                 1.4041
 IR Inten    --      6.3591                 7.3031                 4.3618

                     25                     26                     27
                      A                      A                      A
 Frequencies --   2912.9956              2940.4618              2981.4110
 Red. masses --      1.0746                 1.0618                 1.0804
 Frc consts  --      5.3726                 5.4091                 5.6583
 IR Inten    --     40.3040                46.7945                27.1907

                     28                     29                     30
                      A                      A                      A
 Frequencies --   3013.6102              3029.0981              3088.0382
 Red. masses --      1.0738                 1.0349                 1.0960
 Frc consts  --      5.7458                 5.5948                 6.1578
 IR Inten    --     32.0173                30.4219                33.4522

                     31                     32                     33
                      A                      A                      A
 Frequencies --   3088.3092              3094.4516              3158.0053
 Red. masses --      1.0999                 1.1018                 1.0881
 Frc consts  --      6.1806                 6.2162                 6.3933
 IR Inten    --     24.7885                31.2952                23.2128

 - Thermochemistry -
 -------------------
 Temperature   298.150 Kelvin.  Pressure   1.00000 Atm.
 Atom     1 has atomic number  6 and mass  12.00000

 Molecular mass:    57.07043 amu.
 Principal axes and moments of inertia in atomic units:
                           1         2         3
     Eigenvalues --    67.10345 495.38583 527.40531
           X            0.99998  -0.00675  -0.00005
           Y            0.00675   0.99979   0.01926
           Z           -0.00008  -0.01926   0.99981
 This molecule is an asymmetric top.
 Rotational symmetry number  1.
 Rotational temperatures (Kelvin)      1.29075     0.17484     0.16423
 Rotational constants (GHZ):          26.89491     3.64310     3.42192
 Zero-point vibrational energy     304979.4 (Joules/Mol)
                                   72.89183 (Kcal/Mol)
 Warning -- explicit consideration of   6 degrees of freedom as
           vibrations may cause significant error
 Vibrational temperatures:     85.18   146.56   331.47   371.87   531.53
          (Kelvin)            621.57  1106.50  1220.00  1405.30  1425.14
                             1476.03  1539.08  1624.80  1699.98  1827.11
                             1895.13  2018.75  2028.62  2037.49  2110.27
                             2118.23  2135.07  2154.46  2163.26  4191.15
                             4230.67  4289.59  4335.91  4358.20  4443.00
                             4443.39  4452.23  4543.67

 Zero-point correction=                           0.116161 (Hartree/Particle)
 Thermal correction to Energy=                    0.122553
 Thermal correction to Enthalpy=                  0.123498
 Thermal correction to Gibbs Free Energy=         0.086335
 Sum of electronic and zero-point Energies=           -157.742639
 Sum of electronic and thermal Energies=              -157.736246
 Sum of electronic and thermal Enthalpies=            -157.735302
 Sum of electronic and thermal Free Energies=         -157.772465

                     E (Thermal)             CV                S
                      KCal/Mol        Cal/Mol-Kelvin    Cal/Mol-Kelvin
 Total                   76.903             20.568             78.215
 Electronic               0.000              0.000              1.377
 Translational            0.889              2.981             38.046
 Rotational               0.889              2.981             24.376
 Vibrational             75.126             14.606             14.416
 Vibration     1          0.597              1.974              4.484
 Vibration     2          0.604              1.948              3.418
 Vibration     3          0.652              1.795              1.876
 Vibration     4          0.667              1.748              1.672
 Vibration     5          0.742              1.535              1.082
 Vibration     6          0.793              1.400              0.852

 Optimization completed.
    -- Stationary point found.
 Normal termination of Gaussian 16 at Sat Sep 30 23:36:22 2023.
 Gaussian 16:  ES64L-G16RevB.01 20-Dec-2017

 ---------------------------------
 # rohf/gen geom=check guess=check
 ---------------------------------

 -------------------------
 2-butyl, ROHF/cc-pVTZ-F12
 -------------------------
 Structure from the checkpoint file:  "sBu.chk"
 Charge =  0 Multiplicity = 2

                         Standard orientation:
 ---------------------------------------------------------------------
 Center     Atomic      Atomic             Coordinates (Angstroms)
 Number     Number       Type             X           Y           Z
 ---------------------------------------------------------------------
      1          6           0       -1.935290    0.166523   -0.064096
      2          6           0       -0.567381   -0.503380    0.072249
      3          1           0       -2.741993   -0.565424   -0.014228
      4          1           0       -2.019036    0.695034   -1.014734
      5          1           0       -2.095583    0.892951    0.734548
      6          6           0        0.580069    0.444113    0.035335
      7          1           0       -0.544153   -1.080445    1.011614
      8          1           0       -0.443262   -1.258036   -0.714761
      9          6           0        1.981684   -0.042713   -0.053089
     10          1           0        0.398757    1.486190    0.269215
     11          1           0        2.684257    0.766555   -0.251715
     12          1           0        2.098313   -0.794306   -0.840742
     13          1           0        2.308205   -0.529772    0.878408
 ---------------------------------------------------------------------

 SCF Done:  E(ROHF) =  -156.731016233     A.U. after   17 cycles

 The electronic state is 2-A.
 Alpha  occ. eigenvalues --  -11.21933 -11.21399 -11.20975 -11.20888  -1.05822
 Alpha  occ. eigenvalues --   -0.97977  -0.86014  -0.75535  -0.60808  -0.59019
 Alpha  occ. eigenvalues --   -0.58363  -0.54772  -0.51896  -0.48624  -0.47844
 Alpha  occ. eigenvalues --   -0.47328  -0.05047
 Alpha virt. eigenvalues --    0.04733   0.05362   0.05603   0.06983   0.07539
 Alpha virt. eigenvalues --    0.08769   0.09166   0.10140   0.10787   0.11537
 Alpha virt. eigenvalues --    0.12332   0.13041   0.16544   0.17250   0.18468

 Mulliken charges and spin densities:
               1          2
     1  C   -0.318205   0.002230
     2  C   -0.103164   0.005340
     3  H    0.091612   0.000318
     4  H    0.096453   0.000695
     5  H    0.086323   0.000169
     6  C   -0.077660   0.906345
     7  H    0.073561   0.019290
     8  H    0.074981   0.006583
     9  C   -0.337222   0.009201
    10  H    0.138917   0.021803
    11  H    0.097197   0.000957
    12  H    0.094098   0.006791
    13  H    0.083109   0.020279
 Sum of Mulliken charges =  -0.00000   1.00000

 Dipole moment (field-independent basis, Debye):
    X=              0.0316    Y=             -0.1176    Z=              0.1286  Tot=              0.1771
 Quadrupole moment (field-independent basis, Debye-Ang):
   XX=            -28.0542   YY=            -27.6060   ZZ=            -28.2125
   XY=              0.2574   XZ=             -0.0390   YZ=              0.3486

 Normal termination of Gaussian 16 at Sat Sep 30 23:41:27 2023.
