 Gaussian 16, Revision B.01,
 Gaussian 16:  ES64L-G16RevB.01 20-Dec-2017

 --------------------
 # b3lyp/gen opt freq
 --------------------

 ----------------------
 2-butyl, B3LYP/pcseg-2
 ----------------------
 Symbolic Z-matrix:
 Charge =  0 Multiplicity = 2

 SCF Done:  E(UB3LYP) =  -157.858647128     A.U. after   13 cycles
 SCF Done:  E(UB3LYP) =  -157.858767925     A.U. after    9 cycles
 SCF Done:  E(UB3LYP) =  -157.858772842     A.U. after    7 cycles
 SCF Done:  E(UB3LYP) =  -157.858784971     A.U. after   10 cycles
 SCF Done:  E(UB3LYP) =  -157.858792702     A.U. after   10 cycles
 SCF Done:  E(UB3LYP) =  -157.858798841     A.U. after   10 cycles
 SCF Done:  E(UB3LYP) =  -157.858799602     A.U. after    7 cycles
 SCF Done:  E(UB3LYP) =  -157.858799646     A.U. after    6 cycles
 SCF Done:  E(UB3LYP) =  -157.858799684     A.U. after    6 cycles
 SCF Done:  E(UB3LYP) =  -157.858799722     A.U. after    6 cycles
 SCF Done:  E(UB3LYP) =  -157.858799737     A.U. after    7 cycles
 SCF Done:  E(UB3LYP) =  -157.858799756     A.U. after    6 cycles
 Optimization completed.
    -- Stationary point found.
 Normal termination of Gaussian 16 at Thu Jun 16 15:28:30 2022.

 ------------------------------------------------------------------
 #N Geom=AllCheck Guess=TCheck SCRF=Check GenChk UB3LYP/ChkBas Freq
 ------------------------------------------------------------------

 Structure from the checkpoint file:  "/wrk/irikura/Gau-20937.chk"
 ----------------------
 2-butyl, B3LYP/pcseg-2
 ----------------------
 Charge =  0 Multiplicity = 2

                         Standard orientation:
 ---------------------------------------------------------------------
 Center     Atomic      Atomic             Coordinates (Angstroms)
 Number     Number       Type             X           Y           Z
 ---------------------------------------------------------------------
      1          6           0       -1.935290    0.166523   -0.064096
      2          6           0       -0.567381   -0.503380    0.072249
      3          1           0       -2.741993   -0.565424   -0.014228
      4          1           0       -2.019036    0.695034   -1.014734
      5          1           0       -2.095583    0.892951    0.734548
      6          6           0        0.580069    0.444113    0.035335
      7          1           0       -0.544153   -1.080445    1.011614
      8          1           0       -0.443262   -1.258036   -0.714761
      9          6           0        1.981684   -0.042713   -0.053089
     10          1           0        0.398757    1.486190    0.269215
     11          1           0        2.684257    0.766555   -0.251715
     12          1           0        2.098313   -0.794306   -0.840742
     13          1           0        2.308205   -0.529772    0.878408
 ---------------------------------------------------------------------

 SCF Done:  E(UB3LYP) =  -157.858799756     A.U. after    1 cycles

 The electronic state is 2-A.
 Alpha  occ. eigenvalues --  -10.17298 -10.16924 -10.16338 -10.15870  -0.79812
 Alpha  occ. eigenvalues --   -0.73057  -0.63662  -0.56859  -0.45700  -0.43819
 Alpha  occ. eigenvalues --   -0.43273  -0.40907  -0.37684  -0.35255  -0.34593
 Alpha  occ. eigenvalues --   -0.34135  -0.18673
 Alpha virt. eigenvalues --    0.01804   0.03197   0.04288   0.05786   0.07616
 Alpha virt. eigenvalues --    0.08067   0.09586   0.10244   0.11189   0.13275
 Alpha virt. eigenvalues --    0.14466   0.16951   0.18086   0.19312   0.20655

  Beta  occ. eigenvalues --  -10.17011 -10.16426 -10.15866 -10.15856  -0.78604
  Beta  occ. eigenvalues --   -0.72535  -0.63154  -0.55128  -0.44824  -0.43368
  Beta  occ. eigenvalues --   -0.42826  -0.39931  -0.37417  -0.34823  -0.34233
  Beta  occ. eigenvalues --   -0.33663
  Beta virt. eigenvalues --   -0.04773   0.01886   0.03215   0.04408   0.05866
  Beta virt. eigenvalues --    0.07794   0.08080   0.09777   0.10443   0.11418
  Beta virt. eigenvalues --    0.13380   0.14676   0.17093   0.18265   0.19388

 Mulliken charges and spin densities:
               1          2
     1  C   -0.080516   0.006242
     2  C    0.012862  -0.076647
     3  H    0.028404  -0.000657
     4  H    0.028798   0.002348
     5  H    0.022044  -0.000306
     6  C   -0.105164   0.994139
     7  H    0.016198   0.060828
     8  H    0.015117   0.026224
     9  C   -0.071481  -0.066941
    10  H    0.046229  -0.039855
    11  H    0.033779   0.005279
    12  H    0.025872   0.026684
    13  H    0.027858   0.062661
 Sum of Mulliken charges =  -0.00000   1.00000

 Dipole moment (field-independent basis, Debye):
    X=              0.0564    Y=             -0.1799    Z=              0.1412  Tot=              0.2355
 Quadrupole moment (field-independent basis, Debye-Ang):
   XX=            -28.0009   YY=            -27.7736   ZZ=            -28.4144
   XY=              0.2523   XZ=             -0.0357   YZ=              0.3515

  Exact polarizability:  61.028  -0.474  49.692   0.067  -0.420  44.500
 Approx polarizability:  69.457  -0.093  68.853  -0.030  -0.388  63.456

                      1                      2                      3
                      A                      A                      A
 Frequencies --     59.2558               101.9039               230.3956
 Red. masses --      1.8943                 1.0735                 1.0858
 Frc consts  --      0.0039                 0.0066                 0.0340
 IR Inten    --      0.0820                 0.4463                 0.6105

                      4                      5                      6
                      A                      A                      A
 Frequencies --    258.4708               369.4933               432.0118
 Red. masses --      2.1543                 1.3830                 2.7332
 Frc consts  --      0.0848                 0.1112                 0.3005
 IR Inten    --      1.3806                23.7940                 0.1803

                      7                      8                      9
                      A                      A                      A
 Frequencies --    769.0580               847.9428               976.7265
 Red. masses --      1.1824                 1.9764                 1.2561
 Frc consts  --      0.4120                 0.8372                 0.7060
 IR Inten    --      0.8774                 0.3049                 1.1201

                     10                     11                     12
                      A                      A                      A
 Frequencies --    990.5221              1025.8910              1069.7166
 Red. masses --      1.2756                 2.9209                 1.4480
 Frc consts  --      0.7374                 1.8112                 0.9763
 IR Inten    --      2.7591                 0.1530                 0.9735

                     13                     14                     15
                      A                      A                      A
 Frequencies --   1129.2920              1181.5426              1269.9033
 Red. masses --      2.1578                 2.0730                 1.1963
 Frc consts  --      1.6214                 1.7051                 1.1366
 IR Inten    --      0.4176                 0.1974                 0.1311

                     16                     17                     18
                      A                      A                      A
 Frequencies --   1317.1766              1403.0995              1409.9581
 Red. masses --      1.3245                 1.2827                 1.3983
 Frc consts  --      1.3539                 1.4879                 1.6378
 IR Inten    --      6.5137                 1.7925                 0.1060

                     19                     20                     21
                      A                      A                      A
 Frequencies --   1416.1255              1466.7109              1472.2419
 Red. masses --      1.4177                 1.0667                 1.0628
 Frc consts  --      1.6751                 1.3520                 1.3572
 IR Inten    --      3.9364                 0.6425                 7.3535

                     22                     23                     24
                      A                      A                      A
 Frequencies --   1483.9473              1497.4211              1503.5429
 Red. masses --      1.0480                 1.0393                 1.0542
 Frc consts  --      1.3597                 1.3730                 1.4041
 IR Inten    --      6.3601                 7.3032                 4.3627

                     25                     26                     27
                      A                      A                      A
 Frequencies --   2912.9980              2940.4637              2981.4111
 Red. masses --      1.0746                 1.0618                 1.0804
 Frc consts  --      5.3726                 5.4091                 5.6583
 IR Inten    --     40.2971                46.7950                27.1879

                     28                     29                     30
                      A                      A                      A
 Frequencies --   3013.6074              3029.0990              3088.0357
 Red. masses --      1.0738                 1.0349                 1.0959
 Frc consts  --      5.7457                 5.5948                 6.1575
 IR Inten    --     32.0180                30.4201                33.2911

                     31                     32                     33
                      A                      A                      A
 Frequencies --   3088.3100              3094.4539              3157.9990
 Red. masses --      1.0999                 1.1018                 1.0881
 Frc consts  --      6.1810                 6.2162                 6.3933
 IR Inten    --     24.9537                31.2935                23.2162

 - Thermochemistry -
 -------------------
 Temperature   298.150 Kelvin.  Pressure   1.00000 Atm.
 Atom     1 has atomic number  6 and mass  12.00000

 Molecular mass:    57.07043 amu.
 Principal axes and moments of inertia in atomic units:
                           1         2         3
     Eigenvalues --    67.10344 495.38597 527.40545
           X            0.99998  -0.00675  -0.00005
           Y            0.00675   0.99979   0.01926
           Z           -0.00008  -0.01926   0.99981
 This molecule is an asymmetric top.
 Rotational symmetry number  1.
 Rotational temperatures (Kelvin)      1.29075     0.17484     0.16423
 Rotational constants (GHZ):          26.89491     3.64310     3.42192
 Zero-point vibrational energy     304980.3 (Joules/Mol)
                                   72.89205 (Kcal/Mol)
 Warning -- explicit consideration of   6 degrees of freedom as
           vibrations may cause significant error
 Vibrational temperatures:     85.26   146.62   331.49   371.88   531.62
          (Kelvin)            621.57  1106.50  1220.00  1405.29  1425.14
                             1476.03  1539.08  1624.80  1699.98  1827.11
                             1895.12  2018.75  2028.62  2037.49  2110.27
                             2118.23  2135.07  2154.45  2163.26  4191.15
                             4230.67  4289.59  4335.91  4358.20  4442.99
                             4443.39  4452.23  4543.66

 Zero-point correction=                           0.116161 (Hartree/Particle)
 Thermal correction to Energy=                    0.122553
 Thermal correction to Enthalpy=                  0.123498
 Thermal correction to Gibbs Free Energy=         0.086337
 Sum of electronic and zero-point Energies=           -157.742639
 Sum of electronic and thermal Energies=              -157.736246
 Sum of electronic and thermal Enthalpies=            -157.735302
 Sum of electronic and thermal Free Energies=         -157.772463

                     E (Thermal)             CV                S
                      KCal/Mol        Cal/Mol-Kelvin    Cal/Mol-Kelvin
 Total                   76.903             20.568             78.212
 Electronic               0.000              0.000              1.377
 Translational            0.889              2.981             38.046
 Rotational               0.889              2.981             24.376
 Vibrational             75.126             14.606             14.413
 Vibration     1          0.597              1.974              4.482
 Vibration     2          0.604              1.948              3.418
 Vibration     3          0.652              1.795              1.876
 Vibration     4          0.667              1.748              1.672
 Vibration     5          0.742              1.535              1.082
 Vibration     6          0.793              1.400              0.852

 Optimization completed.
    -- Stationary point found.
 Normal termination of Gaussian 16 at Thu Jun 16 15:33:04 2022.
