 Gaussian 16, Revision B.01,
 Gaussian 16:  ES64L-G16RevB.01 20-Dec-2017

 --------------------
 # b3lyp/gen opt freq
 --------------------

 --------------------------------
 sulfur dichloride, B3LYP/pcseg-2
 --------------------------------
 Symbolic Z-matrix:
 Charge =  0 Multiplicity = 1

 SCF Done:  E(RB3LYP) =  -1318.68774223     A.U. after   12 cycles
 SCF Done:  E(RB3LYP) =  -1318.68835585     A.U. after   10 cycles
 SCF Done:  E(RB3LYP) =  -1318.68846465     A.U. after    8 cycles
 Optimization completed.
    -- Stationary point found.
 Normal termination of Gaussian 16 at Sat Feb 26 10:22:27 2022.

 ------------------------------------------------------------------
 #N Geom=AllCheck Guess=TCheck SCRF=Check GenChk RB3LYP/ChkBas Freq
 ------------------------------------------------------------------

 Structure from the checkpoint file:  "/wrk/irikura/Gau-26245.chk"
 --------------------------------
 sulfur dichloride, B3LYP/pcseg-2
 --------------------------------
 Charge =  0 Multiplicity = 1

                         Standard orientation:
 ---------------------------------------------------------------------
 Center     Atomic      Atomic             Coordinates (Angstroms)
 Number     Number       Type             X           Y           Z
 ---------------------------------------------------------------------
      1         16           0        0.000000    0.000000    0.854491
      2         17           0        0.000000    1.611868   -0.402114
      3         17           0       -0.000000   -1.611868   -0.402114
 ---------------------------------------------------------------------

 SCF Done:  E(RB3LYP) =  -1318.68846465     A.U. after    1 cycles

 The electronic state is 1-A1.
 Alpha  occ. eigenvalues -- -101.55070-101.55070 -88.94659  -9.49452  -9.49452
 Alpha  occ. eigenvalues --   -8.03073  -7.25687  -7.25687  -7.24769  -7.24769
 Alpha  occ. eigenvalues --   -7.24620  -7.24620  -5.99597  -5.99280  -5.98108
 Alpha  occ. eigenvalues --   -0.91812  -0.85535  -0.68900  -0.47844  -0.43622
 Alpha  occ. eigenvalues --   -0.40880  -0.35689  -0.35439  -0.34709  -0.26030
 Alpha virt. eigenvalues --   -0.10610  -0.08798   0.16840   0.20255   0.23471
 Alpha virt. eigenvalues --    0.24319   0.24617   0.28884   0.31196   0.32044
 Alpha virt. eigenvalues --    0.33742   0.34783   0.35569   0.39342   0.39422

 Mulliken charges:
               1
     1  S    0.207474
     2  Cl  -0.103737
     3  Cl  -0.103737
 Sum of Mulliken charges =  -0.00000

 Dipole moment (field-independent basis, Debye):
    X=              0.0000    Y=              0.0000    Z=              0.5278  Tot=              0.5278
 Quadrupole moment (field-independent basis, Debye-Ang):
   XX=            -39.4082   YY=            -37.1420   ZZ=            -36.3615
   XY=             -0.0000   XZ=             -0.0000   YZ=             -0.0000

  Exact polarizability:  20.093   0.000  58.461   0.000   0.000  35.389
 Approx polarizability:  30.496   0.000  98.822   0.000   0.000  62.264

                      1                      2                      3
                     A1                     B2                     A1
 Frequencies --    199.2683               491.7267               506.9310
 Red. masses --     34.3752                33.1765                33.3973
 Frc consts  --      0.8042                 4.7264                 5.0566
 IR Inten    --      0.5311                85.0326                12.0977

 - Thermochemistry -
 -------------------
 Temperature   298.150 Kelvin.  Pressure   1.00000 Atm.
 Atom     1 has atomic number 16 and mass  31.97207

 Molecular mass:   101.90978 amu.
 Principal axes and moments of inertia in atomic units:
                           1         2         3
     Eigenvalues --   123.72614 648.88559 772.61173
           X            0.00000   0.00000   1.00000
           Y            1.00000   0.00000   0.00000
           Z            0.00000   1.00000   0.00000
 This molecule is an asymmetric top.
 Rotational symmetry number  2.
 Rotational temperatures (Kelvin)      0.70005     0.13348     0.11211
 Rotational constants (GHZ):          14.58658     2.78129     2.33590
 Zero-point vibrational energy       7165.2 (Joules/Mol)
                                    1.71252 (Kcal/Mol)
 Warning -- explicit consideration of   3 degrees of freedom as
           vibrations may cause significant error
 Vibrational temperatures:    286.70   707.49   729.36
          (Kelvin)

 Zero-point correction=                           0.002729 (Hartree/Particle)
 Thermal correction to Energy=                    0.006573
 Thermal correction to Enthalpy=                  0.007517
 Thermal correction to Gibbs Free Energy=        -0.024549
 Sum of electronic and zero-point Energies=          -1318.685736
 Sum of electronic and thermal Energies=             -1318.681892
 Sum of electronic and thermal Enthalpies=           -1318.680948
 Sum of electronic and thermal Free Energies=        -1318.713013

                     E (Thermal)             CV                S
                      KCal/Mol        Cal/Mol-Kelvin    Cal/Mol-Kelvin
 Total                    4.125             10.306             67.488
 Electronic               0.000              0.000              0.000
 Translational            0.889              2.981             39.774
 Rotational               0.889              2.981             24.254
 Vibrational              2.347              4.344              3.460
 Vibration     1          0.637              1.841              2.140
 Vibration     2          0.847              1.268              0.679
 Vibration     3          0.862              1.235              0.641

 Optimization completed.
    -- Stationary point found.
 Normal termination of Gaussian 16 at Sat Feb 26 10:22:38 2022.
