 Gaussian 16, Revision B.01,
 Gaussian 16:  ES64L-G16RevB.01 20-Dec-2017

 --------------------
 # b3lyp/gen opt freq
 --------------------

 ----------------------------------
 sulfur hexafluoride, B3LYP/pcseg-2
 ----------------------------------
 Symbolic Z-matrix:
 Charge =  0 Multiplicity = 1

 SCF Done:  E(RB3LYP) =  -997.473793797     A.U. after   10 cycles
 SCF Done:  E(RB3LYP) =  -997.473859754     A.U. after    7 cycles
 SCF Done:  E(RB3LYP) =  -997.473865715     A.U. after    6 cycles
 Optimization completed.
    -- Stationary point found.
 Normal termination of Gaussian 16 at Thu Feb 24 15:51:03 2022.

 ------------------------------------------------------------------
 #N Geom=AllCheck Guess=TCheck SCRF=Check GenChk RB3LYP/ChkBas Freq
 ------------------------------------------------------------------

 Structure from the checkpoint file:  "/wrk/irikura/Gau-22550.chk"
 ----------------------------------
 sulfur hexafluoride, B3LYP/pcseg-2
 ----------------------------------
 Charge =  0 Multiplicity = 1

                         Standard orientation:
 ---------------------------------------------------------------------
 Center     Atomic      Atomic             Coordinates (Angstroms)
 Number     Number       Type             X           Y           Z
 ---------------------------------------------------------------------
      1         16           0        0.000000    0.000000    0.000000
      2          9           0       -0.000000    0.000000    1.581346
      3          9           0        0.000000    1.581346   -0.000000
      4          9           0        1.581346    0.000000    0.000000
      5          9           0       -0.000000   -1.581346    0.000000
      6          9           0       -1.581346    0.000000   -0.000000
      7          9           0       -0.000000   -0.000000   -1.581346
 ---------------------------------------------------------------------

 SCF Done:  E(RB3LYP) =  -997.473865715     A.U. after    1 cycles

 The electronic state is 1-A1G.
 Alpha  occ. eigenvalues --  -89.28152 -24.75486 -24.75486 -24.75486 -24.75486
 Alpha  occ. eigenvalues --  -24.75486 -24.75484  -8.31208  -6.27712  -6.27712
 Alpha  occ. eigenvalues --   -6.27712  -1.41570  -1.29760  -1.29760  -1.29760
 Alpha  occ. eigenvalues --   -1.24851  -1.24851  -0.83138  -0.68175  -0.68175
 Alpha  occ. eigenvalues --   -0.68175  -0.57804  -0.57804  -0.57804  -0.54637
 Alpha  occ. eigenvalues --   -0.54637  -0.49330  -0.49330  -0.49330  -0.48959
 Alpha  occ. eigenvalues --   -0.48959  -0.48959  -0.44902  -0.44902  -0.44902
 Alpha virt. eigenvalues --   -0.08288   0.09236   0.09236   0.09236   0.19009
 Alpha virt. eigenvalues --    0.19009   0.19009   0.27308   0.35613   0.35613
 Alpha virt. eigenvalues --    0.35613   0.37104   0.37104   0.43696   0.43696

 Mulliken charges:
               1
     1  S    1.527048
     2  F   -0.254508
     3  F   -0.254508
     4  F   -0.254508
     5  F   -0.254508
     6  F   -0.254508
     7  F   -0.254508
 Sum of Mulliken charges =  -0.00000

 Dipole moment (field-independent basis, Debye):
    X=              0.0000    Y=              0.0000    Z=              0.0000  Tot=              0.0000
 Quadrupole moment (field-independent basis, Debye-Ang):
   XX=            -43.2951   YY=            -43.2951   ZZ=            -43.2951
   XY=             -0.0000   XZ=             -0.0000   YZ=              0.0000

  Exact polarizability:  26.763   0.000  26.763  -0.000   0.000  26.763
 Approx polarizability:  36.090   0.000  36.090   0.000  -0.000  36.090

                      1                      2                      3
                     T2U                    T2U                    T2U
 Frequencies --    329.6843               329.6843               329.6843
 Red. masses --     18.9984                18.9984                18.9984
 Frc consts  --      1.2166                 1.2166                 1.2166
 IR Inten    --      0.0000                 0.0000                 0.0000

                      4                      5                      6
                     T2G                    T2G                    T2G
 Frequencies --    499.8936               499.8936               499.8936
 Red. masses --     18.9984                18.9984                18.9984
 Frc consts  --      2.7972                 2.7972                 2.7972
 IR Inten    --      0.0000                 0.0000                 0.0000

                      7                      8                      9
                     T1U                    T1U                    T1U
 Frequencies --    587.1736               587.1736               587.1736
 Red. masses --     20.0937                20.0937                20.0937
 Frc consts  --      4.0817                 4.0817                 4.0817
 IR Inten    --     24.6921                24.6921                24.6921

                     10                     11                     12
                     EG                     EG                     A1G
 Frequencies --    616.0822               616.0822               738.5358
 Red. masses --     18.9984                18.9984                18.9984
 Frc consts  --      4.2486                 4.2486                 6.1053
 IR Inten    --      0.0000                 0.0000                 0.0000

                     13                     14                     15
                     T1U                    T1U                    T1U
 Frequencies --    911.4759               911.4759               911.4759
 Red. masses --     25.7567                25.7567                25.7567
 Frc consts  --     12.6075                12.6075                12.6075
 IR Inten    --    450.9303               450.9303               450.9303

 - Thermochemistry -
 -------------------
 Temperature   298.150 Kelvin.  Pressure   1.00000 Atm.
 Atom     1 has atomic number 16 and mass  31.97207

 Molecular mass:   145.96249 amu.
 Principal axes and moments of inertia in atomic units:
                           1         2         3
     Eigenvalues --   678.62283 678.62283 678.62283
           X            0.44721   0.89443   0.00000
           Y            0.89443  -0.44721   0.00000
           Z            0.00000   0.00000   1.00000
 This molecule is a spherical top.
 Rotational symmetry number 24.
 Warning -- assumption of classical behavior for rotation
           may cause significant error
 Rotational temperatures (Kelvin)      0.12763     0.12763     0.12763
 Rotational constants (GHZ):           2.65942     2.65942     2.65942
 Zero-point vibrational energy      53565.1 (Joules/Mol)
                                   12.80236 (Kcal/Mol)
 Warning -- explicit consideration of  11 degrees of freedom as
           vibrations may cause significant error
 Vibrational temperatures:    474.34   474.34   474.34   719.24   719.24
          (Kelvin)            719.24   844.81   844.81   844.81   886.40
                              886.40  1062.59  1311.41  1311.41  1311.41

 Zero-point correction=                           0.020402 (Hartree/Particle)
 Thermal correction to Energy=                    0.026117
 Thermal correction to Enthalpy=                  0.027061
 Thermal correction to Gibbs Free Energy=        -0.006413
 Sum of electronic and zero-point Energies=           -997.453464
 Sum of electronic and thermal Energies=              -997.447748
 Sum of electronic and thermal Enthalpies=            -997.446804
 Sum of electronic and thermal Free Energies=         -997.480279

                     E (Thermal)             CV                S
                      KCal/Mol        Cal/Mol-Kelvin    Cal/Mol-Kelvin
 Total                   16.389             21.945             70.454
 Electronic               0.000              0.000              0.000
 Translational            0.889              2.981             40.845
 Rotational               0.889              2.981             20.923
 Vibrational             14.611             15.984              8.686
 Vibration     1          0.712              1.616              1.262
 Vibration     2          0.712              1.616              1.262
 Vibration     3          0.712              1.616              1.262
 Vibration     4          0.855              1.250              0.658
 Vibration     5          0.855              1.250              0.658
 Vibration     6          0.855              1.250              0.658
 Vibration     7          0.944              1.059              0.472
 Vibration     8          0.944              1.059              0.472
 Vibration     9          0.944              1.059              0.472
 Vibration    10          0.976              0.998              0.423
 Vibration    11          0.976              0.998              0.423

 Optimization completed.
    -- Stationary point found.
 Normal termination of Gaussian 16 at Thu Feb 24 15:51:34 2022.
