 Gaussian 16, Revision B.01,

 ---------------------------------------
 # b3lyp/gen opt freq CPHF(Grid=OneStep)
 ---------------------------------------

 ----------------------------------
 sulfur hexafluoride, B3LYP/pcseg-2
 ----------------------------------
 Symbolic Z-matrix:
 Charge =  0 Multiplicity = 1

 SCF Done:  E(RB3LYP) =  -997.473865715     A.U. after   10 cycles
 Optimization completed.
    -- Stationary point found.
 Normal termination of Gaussian 16 at Fri Sep 29 17:37:24 2023.

 ------------------------------------------------------------------
 #N Geom=AllCheck Guess=TCheck SCRF=Check GenChk RB3LYP/ChkBas Freq
 ------------------------------------------------------------------

 Structure from the checkpoint file:  "sf6.chk"
 ----------------------------------
 sulfur hexafluoride, B3LYP/pcseg-2
 ----------------------------------
 Charge =  0 Multiplicity = 1

 SCF Done:  E(RB3LYP) =  -997.473865715     A.U. after    1 cycles

  Exact polarizability:  26.761  -0.000  26.761   0.000  -0.000  26.761
 Approx polarizability:  36.090  -0.000  36.090   0.000  -0.000  36.090

                      1                      2                      3
                     T2U                    T2U                    T2U
 Frequencies --    329.6880               329.6880               329.6880
 Red. masses --     18.9984                18.9984                18.9984
 Frc consts  --      1.2167                 1.2167                 1.2167
 IR Inten    --      0.0000                 0.0000                 0.0000

                      4                      5                      6
                     T2G                    T2G                    T2G
 Frequencies --    499.8937               499.8937               499.8937
 Red. masses --     18.9984                18.9984                18.9984
 Frc consts  --      2.7972                 2.7972                 2.7972
 IR Inten    --      0.0000                 0.0000                 0.0000

                      7                      8                      9
                     T1U                    T1U                    T1U
 Frequencies --    587.1738               587.1738               587.1738
 Red. masses --     20.0937                20.0937                20.0937
 Frc consts  --      4.0817                 4.0817                 4.0817
 IR Inten    --     24.6937                24.6937                24.6937

                     10                     11                     12
                     EG                     EG                     A1G
 Frequencies --    616.0984               616.0984               738.5266
 Red. masses --     18.9984                18.9984                18.9984
 Frc consts  --      4.2488                 4.2488                 6.1052
 IR Inten    --      0.0000                 0.0000                 0.0000

                     13                     14                     15
                     T1U                    T1U                    T1U
 Frequencies --    911.4864               911.4864               911.4864
 Red. masses --     25.7567                25.7567                25.7567
 Frc consts  --     12.6079                12.6079                12.6079
 IR Inten    --    450.9556               450.9556               450.9556

 - Thermochemistry -
 -------------------
 Temperature   298.150 Kelvin.  Pressure   1.00000 Atm.
 Atom     1 has atomic number 16 and mass  31.97207

 Molecular mass:   145.96249 amu.
 Principal axes and moments of inertia in atomic units:
                           1         2         3
     Eigenvalues --   678.62310 678.62310 678.62310
           X            0.44721   0.89443   0.00000
           Y            0.89443  -0.44721   0.00000
           Z            0.00000   0.00000   1.00000
 This molecule is a spherical top.
 Rotational symmetry number 24.
 Warning -- assumption of classical behavior for rotation
           may cause significant error
 Rotational temperatures (Kelvin)      0.12763     0.12763     0.12763
 Rotational constants (GHZ):           2.65942     2.65942     2.65942
 Zero-point vibrational energy      53565.5 (Joules/Mol)
                                   12.80246 (Kcal/Mol)
 Warning -- explicit consideration of  11 degrees of freedom as
           vibrations may cause significant error
 Vibrational temperatures:    474.35   474.35   474.35   719.24   719.24
          (Kelvin)            719.24   844.81   844.81   844.81   886.43
                              886.43  1062.58  1311.43  1311.43  1311.43

 Zero-point correction=                           0.020402 (Hartree/Particle)
 Thermal correction to Energy=                    0.026117
 Thermal correction to Enthalpy=                  0.027062
 Thermal correction to Gibbs Free Energy=        -0.006413
 Sum of electronic and zero-point Energies=           -997.453464
 Sum of electronic and thermal Energies=              -997.447748
 Sum of electronic and thermal Enthalpies=            -997.446804
 Sum of electronic and thermal Free Energies=         -997.480279

                     E (Thermal)             CV                S
                      KCal/Mol        Cal/Mol-Kelvin    Cal/Mol-Kelvin
 Total                   16.389             21.945             70.454
 Electronic               0.000              0.000              0.000
 Translational            0.889              2.981             40.845
 Rotational               0.889              2.981             20.923
 Vibrational             14.611             15.983              8.686
 Vibration     1          0.712              1.616              1.262
 Vibration     2          0.712              1.616              1.262
 Vibration     3          0.712              1.616              1.262
 Vibration     4          0.855              1.250              0.658
 Vibration     5          0.855              1.250              0.658
 Vibration     6          0.855              1.250              0.658
 Vibration     7          0.944              1.059              0.472
 Vibration     8          0.944              1.059              0.472
 Vibration     9          0.944              1.059              0.472
 Vibration    10          0.976              0.998              0.423
 Vibration    11          0.976              0.998              0.423

 Optimization completed.
    -- Stationary point found.
 Normal termination of Gaussian 16 at Fri Sep 29 17:38:56 2023.
 Gaussian 16:  ES64L-G16RevB.01 20-Dec-2017

 ---------------------------------
 # rohf/gen geom=check guess=check
 ---------------------------------

 -------------------------------------
 sulfur hexafluoride, ROHF/cc-pVTZ-F12
 -------------------------------------
 Structure from the checkpoint file:  "sf6.chk"
 Charge =  0 Multiplicity = 1

                         Standard orientation:
 ---------------------------------------------------------------------
 Center     Atomic      Atomic             Coordinates (Angstroms)
 Number     Number       Type             X           Y           Z
 ---------------------------------------------------------------------
      1         16           0        0.000000    0.000000    0.000000
      2          9           0       -0.000000    0.000000    1.581346
      3          9           0       -0.000000    1.581346   -0.000000
      4          9           0        1.581346   -0.000000    0.000000
      5          9           0       -0.000000   -1.581346    0.000000
      6          9           0       -1.581346   -0.000000   -0.000000
      7          9           0       -0.000000   -0.000000   -1.581346
 ---------------------------------------------------------------------

 SCF Done:  E(ROHF) =  -994.370784197     A.U. after    9 cycles

 The electronic state is 1-A1G.
 Alpha  occ. eigenvalues --  -92.44052 -26.38044 -26.38044 -26.38042 -26.38042
 Alpha  occ. eigenvalues --  -26.38042 -26.38038  -9.37475  -7.06393  -7.06393
 Alpha  occ. eigenvalues --   -7.06393  -1.81987  -1.69958  -1.69958  -1.69958
 Alpha  occ. eigenvalues --   -1.65005  -1.65005  -1.09099  -0.91134  -0.91134
 Alpha  occ. eigenvalues --   -0.91134  -0.82286  -0.82286  -0.82286  -0.73151
 Alpha  occ. eigenvalues --   -0.73151  -0.72542  -0.72542  -0.72542  -0.71208
 Alpha  occ. eigenvalues --   -0.71208  -0.71208  -0.67871  -0.67871  -0.67871
 Alpha virt. eigenvalues --    0.06020   0.06434   0.06434   0.06434   0.14742
 Alpha virt. eigenvalues --    0.15190   0.15190   0.18974   0.18974   0.18974
 Alpha virt. eigenvalues --    0.19707   0.19707   0.19707   0.23828   0.23828

 Mulliken charges and spin densities:
               1          2
     1  S    2.719669   0.000000
     2  F   -0.453278   0.000000
     3  F   -0.453278   0.000000
     4  F   -0.453278   0.000000
     5  F   -0.453278   0.000000
     6  F   -0.453278   0.000000
     7  F   -0.453278   0.000000
 Sum of Mulliken charges =  -0.00000   0.00000

 Dipole moment (field-independent basis, Debye):
    X=             -0.0000    Y=             -0.0000    Z=             -0.0000  Tot=              0.0000
 Quadrupole moment (field-independent basis, Debye-Ang):
   XX=            -42.8481   YY=            -42.8481   ZZ=            -42.8481
   XY=              0.0000   XZ=             -0.0000   YZ=              0.0000

 Normal termination of Gaussian 16 at Fri Sep 29 17:39:19 2023.
