 Gaussian 16, Revision B.01,
 Gaussian 16:  ES64L-G16RevB.01 20-Dec-2017

 --------------------
 # b3lyp/gen opt freq
 --------------------

 -------------------------
 sulfhydryl, B3LYP/pcseg-2
 -------------------------
 Symbolic Z-matrix:
 Charge =  0 Multiplicity = 2

 SCF Done:  E(UB3LYP) =  -398.783628934     A.U. after   11 cycles
 SCF Done:  E(UB3LYP) =  -398.783632094     A.U. after    8 cycles
 Optimization completed.
    -- Stationary point found.
 Normal termination of Gaussian 16 at Tue Sep 12 11:11:43 2023.

 ------------------------------------------------------------------
 #N Geom=AllCheck Guess=TCheck SCRF=Check GenChk UB3LYP/ChkBas Freq
 ------------------------------------------------------------------

 Structure from the checkpoint file:  "/wrk/irikura/Gau-336341.chk"
 -------------------------
 sulfhydryl, B3LYP/pcseg-2
 -------------------------
 Charge =  0 Multiplicity = 2

                         Standard orientation:
 ---------------------------------------------------------------------
 Center     Atomic      Atomic             Coordinates (Angstroms)
 Number     Number       Type             X           Y           Z
 ---------------------------------------------------------------------
      1          1           0        0.000000    0.000000   -1.268105
      2         16           0        0.000000    0.000000    0.079257
 ---------------------------------------------------------------------

 SCF Done:  E(UB3LYP) =  -398.783632094     A.U. after    1 cycles

 Unable to determine electronic state:  partially filled degenerate orbitals.
 Alpha  occ. eigenvalues --  -88.87463  -7.96559  -5.93578  -5.92493  -5.91707
 Alpha  occ. eigenvalues --   -0.74015  -0.41580  -0.32469  -0.27830
 Alpha virt. eigenvalues --    0.00014   0.10908   0.22735   0.24682   0.24878
 Alpha virt. eigenvalues --    0.40390   0.43395   0.50069   0.50110   0.51723
 Alpha virt. eigenvalues --    0.69200   0.91918   0.93788   1.23991   1.50681

  Beta  occ. eigenvalues --  -88.86891  -7.95991  -5.92156  -5.91697  -5.91372
  Beta  occ. eigenvalues --   -0.70038  -0.40283  -0.26526
  Beta virt. eigenvalues --   -0.18160   0.00692   0.11699   0.25061   0.25371
  Beta virt. eigenvalues --    0.25777   0.43758   0.44550   0.53103   0.55151
  Beta virt. eigenvalues --    0.55592   0.70703   0.93888   0.93914   1.24375

 Mulliken charges and spin densities:
               1          2
     1  H    0.067909  -0.014077
     2  S   -0.067909   1.014077
 Sum of Mulliken charges =  -0.00000   1.00000

 Dipole moment (field-independent basis, Debye):
    X=              0.0000    Y=              0.0000    Z=             -0.9299  Tot=              0.9299
 Quadrupole moment (field-independent basis, Debye-Ang):
   XX=            -15.8403   YY=            -12.9786   ZZ=            -12.1135
   XY=              0.0000   XZ=              0.0000   YZ=              0.0000

  Exact polarizability:  12.523  -0.000  10.694   0.000   0.000  18.104
 Approx polarizability:  15.273  -0.000  15.096  -0.000  -0.000  26.439

                      1
                     SG
 Frequencies --   2656.7844
 Red. masses --      1.0386
 Frc consts  --      4.3191
 IR Inten    --      2.1459

 - Thermochemistry -
 -------------------
 Temperature   298.150 Kelvin.  Pressure   1.00000 Atm.
 Atom     1 has atomic number  1 and mass   1.00783

 Molecular mass:    32.97990 amu.
 Principal axes and moments of inertia in atomic units:
                           1         2         3
     Eigenvalues --     0.00000   6.33392   6.33392
           X            0.00000  -0.00000   1.00000
           Y            0.00000   1.00000   0.00000
           Z            1.00000   0.00000   0.00000
 This molecule is a prolate symmetric top.
 Rotational symmetry number  1.
 Rotational temperature (Kelvin)     13.67462
 Rotational constant (GHZ):         284.932812
 Zero-point vibrational energy      15891.1 (Joules/Mol)
                                    3.79806 (Kcal/Mol)
 Vibrational temperatures:   3822.52
          (Kelvin)

 Zero-point correction=                           0.006053 (Hartree/Particle)
 Thermal correction to Energy=                    0.008413
 Thermal correction to Enthalpy=                  0.009357
 Thermal correction to Gibbs Free Energy=        -0.012452
 Sum of electronic and zero-point Energies=           -398.777579
 Sum of electronic and thermal Energies=              -398.775219
 Sum of electronic and thermal Enthalpies=            -398.774275
 Sum of electronic and thermal Free Energies=         -398.796084

                     E (Thermal)             CV                S
                      KCal/Mol        Cal/Mol-Kelvin    Cal/Mol-Kelvin
 Total                    5.279              4.969             45.901
 Electronic               0.000              0.000              1.377
 Translational            0.889              2.981             36.411
 Rotational               0.592              1.987              8.112
 Vibrational              3.798              0.001              0.000

 Optimization completed.
    -- Stationary point found.
 Normal termination of Gaussian 16 at Tue Sep 12 11:11:52 2023.
