 Gaussian 16, Revision B.01,
 Gaussian 16:  ES64L-G16RevB.01 20-Dec-2017

 -----------------------
 # b3lyp/gen opt=calcall
 -----------------------

 -----------------------
 disilene, B3LYP/pcseg-2
 -----------------------
 Symbolic Z-matrix:
 Charge =  0 Multiplicity = 1

 SCF Done:  E(RB3LYP) =  -581.394471765     A.U. after    9 cycles
 SCF Done:  E(RB3LYP) =  -581.394560260     A.U. after    9 cycles
 SCF Done:  E(RB3LYP) =  -581.394561245     A.U. after    6 cycles
 Optimization completed.
    -- Stationary point found.

                         Standard orientation:
 ---------------------------------------------------------------------
 Center     Atomic      Atomic             Coordinates (Angstroms)
 Number     Number       Type             X           Y           Z
 ---------------------------------------------------------------------
      1         14           0        0.000000    1.081068    0.000000
      2         14           0       -0.000000   -1.081068    0.000000
      3          1           0        0.396412    1.801176    1.228370
      4          1           0        0.396412    1.801176   -1.228370
      5          1           0       -0.396412   -1.801176    1.228370
      6          1           0       -0.396412   -1.801176   -1.228370
 ---------------------------------------------------------------------

 The electronic state is 1-AG.
 Alpha  occ. eigenvalues --  -66.09318 -66.09318  -5.27941  -5.27916  -3.63890
 Alpha  occ. eigenvalues --   -3.63865  -3.63545  -3.63531  -3.63531  -3.63420
 Alpha  occ. eigenvalues --   -0.56774  -0.49154  -0.38004  -0.35628  -0.33256
 Alpha  occ. eigenvalues --   -0.22009
 Alpha virt. eigenvalues --   -0.08680  -0.00871   0.00431   0.01580   0.05073
 Alpha virt. eigenvalues --    0.07816   0.08914   0.10160   0.12785   0.13595
 Alpha virt. eigenvalues --    0.13907   0.14519   0.18124   0.23541   0.27516

 Mulliken charges:
               1
     1  Si   0.194602
     2  Si   0.194602
     3  H   -0.097301
     4  H   -0.097301
     5  H   -0.097301
     6  H   -0.097301
 Sum of Mulliken charges =  -0.00000

 Dipole moment (field-independent basis, Debye):
    X=             -0.0000    Y=              0.0000    Z=             -0.0000  Tot=              0.0000
 Quadrupole moment (field-independent basis, Debye-Ang):
   XX=            -31.6832   YY=            -28.1857   ZZ=            -29.7254
   XY=             -0.4924   XZ=             -0.0000   YZ=              0.0000

  Exact polarizability:  41.721  -2.931 102.867   0.000   0.000  56.222
 Approx polarizability:  63.138 -22.103 209.323  -0.000  -0.000  82.384

                      1                      2                      3
                     AG                     AU                     BU
 Frequencies --    302.7822               348.3388               458.7978
 Red. masses --      1.3571                 1.0269                 1.0775
 Frc consts  --      0.0733                 0.0734                 0.1336
 IR Inten    --      0.0000                22.9349                27.9334

                      4                      5                      6
                     AU                     AG                     BG
 Frequencies --    528.2852               567.4510               613.6305
 Red. masses --      1.0087                 4.5498                 1.2047
 Frc consts  --      0.1659                 0.8632                 0.2673
 IR Inten    --      0.1812                 0.0000                 0.0000

                      7                      8                      9
                     BU                     AG                     BU
 Frequencies --    915.5675               955.0392              2229.9593
 Red. masses --      1.0556                 1.0878                 1.0280
 Frc consts  --      0.5214                 0.5846                 3.0118
 IR Inten    --    169.8754                 0.0000               104.1636

                     10                     11                     12
                     AG                     BG                     AU
 Frequencies --   2234.8690              2251.0934              2262.1554
 Red. masses --      1.0302                 1.0542                 1.0556
 Frc consts  --      3.0317                 3.1476                 3.1828
 IR Inten    --      0.0000                 0.0000               136.6650

 - Thermochemistry -
 -------------------
 Temperature   298.150 Kelvin.  Pressure   1.00000 Atm.
 Atom     1 has atomic number 14 and mass  27.97693

 Molecular mass:    59.98516 amu.
 Principal axes and moments of inertia in atomic units:
                           1         2         3
     Eigenvalues --    23.60473 282.49157 302.33101
           X            0.03690   0.00000   0.99932
           Y            0.99932   0.00000  -0.03690
           Z            0.00000   1.00000   0.00000
 This molecule is an asymmetric top.
 Rotational symmetry number  2.
 Rotational temperatures (Kelvin)      3.66935     0.30661     0.28649
 Rotational constants (GHZ):          76.45675     6.38866     5.96942
 Zero-point vibrational energy      81752.6 (Joules/Mol)
                                   19.53934 (Kcal/Mol)
 Warning -- explicit consideration of   6 degrees of freedom as
           vibrations may cause significant error
 Vibrational temperatures:    435.64   501.18   660.11   760.08   816.44
          (Kelvin)            882.88  1317.30  1374.09  3208.41  3215.48
                             3238.82  3254.74

 Zero-point correction=                           0.031138 (Hartree/Particle)
 Thermal correction to Energy=                    0.035638
 Thermal correction to Enthalpy=                  0.036582
 Thermal correction to Gibbs Free Energy=         0.006097
 Sum of electronic and zero-point Energies=           -581.363423
 Sum of electronic and thermal Energies=              -581.358924
 Sum of electronic and thermal Enthalpies=            -581.357979
 Sum of electronic and thermal Free Energies=         -581.388464

                     E (Thermal)             CV                S
                      KCal/Mol        Cal/Mol-Kelvin    Cal/Mol-Kelvin
 Total                   22.363             14.769             64.161
 Electronic               0.000              0.000              0.000
 Translational            0.889              2.981             38.195
 Rotational               0.889              2.981             20.849
 Vibrational             20.585              8.807              5.117
 Vibration     1          0.694              1.668              1.401
 Vibration     2          0.726              1.579              1.174
 Vibration     3          0.817              1.341              0.770
 Vibration     4          0.883              1.187              0.591
 Vibration     5          0.923              1.102              0.509
 Vibration     6          0.973              1.003              0.427

 Normal termination of Gaussian 16 at Sun Sep 10 20:23:02 2023.
