 Gaussian 16, Revision B.01,
 Gaussian 16:  ES64L-G16RevB.01 20-Dec-2017

 ---------------------------------------
 # b3lyp/gen opt freq CPHF(Grid=OneStep)
 ---------------------------------------

 -----------------------
 disilane, B3LYP/pcseg-2
 -----------------------
 Symbolic Z-matrix:
 Charge =  0 Multiplicity = 1

 SCF Done:  E(RB3LYP) =  -582.657509453     A.U. after    9 cycles
 SCF Done:  E(RB3LYP) =  -582.657614722     A.U. after    7 cycles
 Optimization completed.
    -- Stationary point found.
 Normal termination of Gaussian 16 at Sun Sep 17 00:33:53 2023.

 ------------------------------------------------------------------
 #N Geom=AllCheck Guess=TCheck SCRF=Check GenChk RB3LYP/ChkBas Freq
 ------------------------------------------------------------------

 Structure from the checkpoint file:  "/wrk/irikura/Gau-325151.chk"
 -----------------------
 disilane, B3LYP/pcseg-2
 -----------------------
 Charge =  0 Multiplicity = 1

                         Standard orientation:
 ---------------------------------------------------------------------
 Center     Atomic      Atomic             Coordinates (Angstroms)
 Number     Number       Type             X           Y           Z
 ---------------------------------------------------------------------
      1         14           0        0.000000    0.000000    1.175689
      2         14           0       -0.000000   -0.000000   -1.175689
      3          1           0        0.000000    1.389622    1.691690
      4          1           0       -1.203448   -0.694811    1.691690
      5          1           0        1.203448   -0.694811    1.691690
      6          1           0       -0.000000   -1.389622   -1.691690
      7          1           0       -1.203448    0.694811   -1.691690
      8          1           0        1.203448    0.694811   -1.691690
 ---------------------------------------------------------------------

 SCF Done:  E(RB3LYP) =  -582.657614722     A.U. after    1 cycles

 The electronic state is 1-A1G.
 Alpha  occ. eigenvalues --  -66.08353 -66.08353  -5.27016  -5.27007  -3.62762
 Alpha  occ. eigenvalues --   -3.62723  -3.62723  -3.62718  -3.62718  -3.62703
 Alpha  occ. eigenvalues --   -0.57182  -0.51054  -0.36854  -0.36854  -0.34535
 Alpha  occ. eigenvalues --   -0.34535  -0.30106
 Alpha virt. eigenvalues --    0.00451   0.00455   0.00455   0.00734   0.03625
 Alpha virt. eigenvalues --    0.03625   0.05904   0.08505   0.10507   0.10507
 Alpha virt. eigenvalues --    0.13221   0.13221   0.18654   0.24023   0.24566

 Mulliken charges:
               1
     1  Si   0.380280
     2  Si   0.380280
     3  H   -0.126760
     4  H   -0.126760
     5  H   -0.126760
     6  H   -0.126760
     7  H   -0.126760
     8  H   -0.126760
 Sum of Mulliken charges =   0.00000

 Dipole moment (field-independent basis, Debye):
    X=              0.0000    Y=             -0.0000    Z=              0.0000  Tot=              0.0000
 Quadrupole moment (field-independent basis, Debye-Ang):
   XX=            -31.5274   YY=            -31.5274   ZZ=            -32.6174
   XY=              0.0000   XZ=              0.0000   YZ=             -0.0000

  Exact polarizability:  53.049  -0.000  53.049  -0.000  -0.000  70.132
 Approx polarizability:  75.708   0.000  75.708  -0.000  -0.000  87.903

                      1                      2                      3
                     A1U                    EU                     EU
 Frequencies --    127.2206               373.3720               373.3720
 Red. masses --      1.0078                 1.0299                 1.0299
 Frc consts  --      0.0096                 0.0846                 0.0846
 IR Inten    --      0.0000                26.4104                26.4100

                      4                      5                      6
                     A1G                    EG                     EG
 Frequencies --    421.2766               632.7483               632.7483
 Red. masses --      7.1071                 1.2054                 1.2054
 Frc consts  --      0.7432                 0.2843                 0.2843
 IR Inten    --      0.0000                 0.0000                 0.0000

                      7                      8                      9
                     A2U                    A1G                    EG
 Frequencies --    853.8590               926.9982               944.4799
 Red. masses --      1.0998                 1.1127                 1.0260
 Frc consts  --      0.4724                 0.5634                 0.5392
 IR Inten    --    542.0020                 0.0000                 0.0000

                     10                     11                     12
                     EG                     EU                     EU
 Frequencies --    944.4799               958.5660               958.5660
 Red. masses --      1.0260                 1.0393                 1.0393
 Frc consts  --      0.5392                 0.5626                 0.5626
 IR Inten    --      0.0000                89.4534                89.4531

                     13                     14                     15
                     A2U                    EG                     EG
 Frequencies --   2211.6355              2219.5782              2219.5782
 Red. masses --      1.0184                 1.0503                 1.0503
 Frc consts  --      2.9349                 3.0485                 3.0485
 IR Inten    --    120.5920                 0.0000                 0.0000

                     16                     17                     18
                     A1G                    EU                     EU
 Frequencies --   2220.6184              2229.1213              2229.1214
 Red. masses --      1.0195                 1.0524                 1.0524
 Frc consts  --      2.9621                 3.0810                 3.0810
 IR Inten    --      0.0000               204.6844               204.6855

 - Thermochemistry -
 -------------------
 Temperature   298.150 Kelvin.  Pressure   1.00000 Atm.
 Atom     1 has atomic number 14 and mass  27.97693

 Molecular mass:    62.00081 amu.
 Principal axes and moments of inertia in atomic units:
                           1         2         3
     Eigenvalues --    41.69919 358.84060 358.84060
           X           -0.00000  -0.34731   0.93775
           Y            0.00000   0.93775   0.34731
           Z            1.00000  -0.00000   0.00000
 This molecule is a prolate symmetric top.
 Rotational symmetry number  6.
 Rotational temperatures (Kelvin)      2.07711     0.24137     0.24137
 Rotational constants (GHZ):          43.28000     5.02937     5.02937
 Zero-point vibrational energy     128463.0 (Joules/Mol)
                                   30.70340 (Kcal/Mol)
 Warning -- explicit consideration of   4 degrees of freedom as
           vibrations may cause significant error
 Vibrational temperatures:    183.04   537.20   537.20   606.12   910.38
          (Kelvin)            910.38  1228.51  1333.74  1358.90  1358.90
                             1379.16  1379.16  3182.05  3193.48  3193.48
                             3194.97  3207.21  3207.21

 Zero-point correction=                           0.048929 (Hartree/Particle)
 Thermal correction to Energy=                    0.053984
 Thermal correction to Enthalpy=                  0.054929
 Thermal correction to Gibbs Free Energy=         0.023815
 Sum of electronic and zero-point Energies=           -582.608686
 Sum of electronic and thermal Energies=              -582.603630
 Sum of electronic and thermal Enthalpies=            -582.602686
 Sum of electronic and thermal Free Energies=         -582.633800

                     E (Thermal)             CV                S
                      KCal/Mol        Cal/Mol-Kelvin    Cal/Mol-Kelvin
 Total                   33.876             17.086             65.484
 Electronic               0.000              0.000              0.000
 Translational            0.889              2.981             38.293
 Rotational               0.889              2.981             19.639
 Vibrational             32.098             11.124              7.551
 Vibration     1          0.611              1.926              2.988
 Vibration     2          0.745              1.527              1.066
 Vibration     3          0.745              1.527              1.066
 Vibration     4          0.784              1.424              0.888

 Optimization completed.
    -- Stationary point found.
 Normal termination of Gaussian 16 at Sun Sep 17 00:34:17 2023.
