 Gaussian 16, Revision B.01,

 ---------------------------------------
 # b3lyp/gen opt freq CPHF(Grid=OneStep)
 ---------------------------------------

 -----------------------
 disilene, B3LYP/pcseg-2
 -----------------------
 Symbolic Z-matrix:
 Charge =  0 Multiplicity = 1

 SCF Done:  E(RB3LYP) =  -581.394561245     A.U. after    9 cycles
 Optimization completed.
    -- Stationary point found.
 Normal termination of Gaussian 16 at Fri Sep 29 04:02:09 2023.

 ------------------------------------------------------------------
 #N Geom=AllCheck Guess=TCheck SCRF=Check GenChk RB3LYP/ChkBas Freq
 ------------------------------------------------------------------

 Structure from the checkpoint file:  "si2h4.chk"
 -----------------------
 disilene, B3LYP/pcseg-2
 -----------------------
 Charge =  0 Multiplicity = 1

 SCF Done:  E(RB3LYP) =  -581.394561245     A.U. after    1 cycles

  Exact polarizability:  41.720  -2.933 102.863   0.000   0.000  56.222
 Approx polarizability:  63.138 -22.103 209.323   0.000   0.000  82.384

                      1                      2                      3
                     AG                     AU                     BU
 Frequencies --    302.7613               348.3626               458.8086
 Red. masses --      1.3570                 1.0269                 1.0775
 Frc consts  --      0.0733                 0.0734                 0.1336
 IR Inten    --      0.0000                22.9280                27.9238

                      4                      5                      6
                     AU                     AG                     BG
 Frequencies --    528.2726               567.4571               613.6409
 Red. masses --      1.0087                 4.5498                 1.2047
 Frc consts  --      0.1659                 0.8632                 0.2673
 IR Inten    --      0.1814                 0.0000                 0.0000

                      7                      8                      9
                     BU                     AG                     BU
 Frequencies --    915.5765               955.0424              2229.9709
 Red. masses --      1.0556                 1.0878                 1.0280
 Frc consts  --      0.5214                 0.5846                 3.0118
 IR Inten    --    169.8705                 0.0000               104.1291

                     10                     11                     12
                     AG                     BG                     AU
 Frequencies --   2234.8790              2251.0754              2262.1376
 Red. masses --      1.0302                 1.0542                 1.0556
 Frc consts  --      3.0317                 3.1475                 3.1827
 IR Inten    --      0.0000                 0.0000               136.6995

 - Thermochemistry -
 -------------------
 Temperature   298.150 Kelvin.  Pressure   1.00000 Atm.
 Atom     1 has atomic number 14 and mass  27.97693

 Molecular mass:    59.98516 amu.
 Principal axes and moments of inertia in atomic units:
                           1         2         3
     Eigenvalues --    23.60472 282.49156 302.33099
           X            0.03690   0.00000   0.99932
           Y            0.99932   0.00000  -0.03690
           Z            0.00000   1.00000  -0.00000
 This molecule is an asymmetric top.
 Rotational symmetry number  2.
 Rotational temperatures (Kelvin)      3.66935     0.30661     0.28649
 Rotational constants (GHZ):          76.45679     6.38866     5.96942
 Zero-point vibrational energy      81752.7 (Joules/Mol)
                                   19.53937 (Kcal/Mol)
 Warning -- explicit consideration of   6 degrees of freedom as
           vibrations may cause significant error
 Vibrational temperatures:    435.61   501.22   660.12   760.07   816.44
          (Kelvin)            882.89  1317.31  1374.09  3208.43  3215.49
                             3238.80  3254.71

 Zero-point correction=                           0.031138 (Hartree/Particle)
 Thermal correction to Energy=                    0.035638
 Thermal correction to Enthalpy=                  0.036582
 Thermal correction to Gibbs Free Energy=         0.006097
 Sum of electronic and zero-point Energies=           -581.363423
 Sum of electronic and thermal Energies=              -581.358924
 Sum of electronic and thermal Enthalpies=            -581.357979
 Sum of electronic and thermal Free Energies=         -581.388464

                     E (Thermal)             CV                S
                      KCal/Mol        Cal/Mol-Kelvin    Cal/Mol-Kelvin
 Total                   22.363             14.769             64.161
 Electronic               0.000              0.000              0.000
 Translational            0.889              2.981             38.195
 Rotational               0.889              2.981             20.849
 Vibrational             20.586              8.807              5.117
 Vibration     1          0.694              1.668              1.402
 Vibration     2          0.726              1.579              1.174
 Vibration     3          0.817              1.341              0.770
 Vibration     4          0.883              1.187              0.591
 Vibration     5          0.923              1.102              0.509
 Vibration     6          0.973              1.003              0.427

 Optimization completed.
    -- Stationary point found.
 Normal termination of Gaussian 16 at Fri Sep 29 04:02:39 2023.
 Gaussian 16:  ES64L-G16RevB.01 20-Dec-2017

 ---------------------------------
 # rohf/gen geom=check guess=check
 ---------------------------------

 --------------------------
 disilene, ROHF/cc-pVTZ-F12
 --------------------------
 Structure from the checkpoint file:  "si2h4.chk"
 Charge =  0 Multiplicity = 1

                         Standard orientation:
 ---------------------------------------------------------------------
 Center     Atomic      Atomic             Coordinates (Angstroms)
 Number     Number       Type             X           Y           Z
 ---------------------------------------------------------------------
      1         14           0        0.000000    1.081068   -0.000000
      2         14           0       -0.000000   -1.081068   -0.000000
      3          1           0        0.396412    1.801176    1.228370
      4          1           0        0.396412    1.801176   -1.228370
      5          1           0       -0.396412   -1.801176    1.228370
      6          1           0       -0.396412   -1.801176   -1.228370
 ---------------------------------------------------------------------

 SCF Done:  E(ROHF) =  -580.149475628     A.U. after   11 cycles

 The electronic state is 1-AG.
 Alpha  occ. eigenvalues --  -68.78454 -68.78454  -6.13390  -6.13358  -4.24027
 Alpha  occ. eigenvalues --   -4.23989  -4.23883  -4.23857  -4.23841  -4.23782
 Alpha  occ. eigenvalues --   -0.74865  -0.65039  -0.51275  -0.48651  -0.44727
 Alpha  occ. eigenvalues --   -0.28172
 Alpha virt. eigenvalues --    0.01815   0.03352   0.04849   0.05004   0.05378
 Alpha virt. eigenvalues --    0.06415   0.06713   0.07789   0.11637   0.12158
 Alpha virt. eigenvalues --    0.14162   0.15948   0.16263   0.16859   0.22444

 Mulliken charges and spin densities:
               1          2
     1  Si   0.385830   0.000000
     2  Si   0.385830   0.000000
     3  H   -0.192915   0.000000
     4  H   -0.192915   0.000000
     5  H   -0.192915   0.000000
     6  H   -0.192915   0.000000
 Sum of Mulliken charges =  -0.00000   0.00000

 Dipole moment (field-independent basis, Debye):
    X=              0.0000    Y=              0.0000    Z=             -0.0000  Tot=              0.0000
 Quadrupole moment (field-independent basis, Debye-Ang):
   XX=            -32.4467   YY=            -27.5567   ZZ=            -30.2058
   XY=             -0.7197   XZ=             -0.0000   YZ=              0.0000

 Normal termination of Gaussian 16 at Fri Sep 29 04:02:46 2023.
