 Gaussian 16, Revision B.01,

 ---------------------------------------
 # b3lyp/gen opt freq CPHF(Grid=OneStep)
 ---------------------------------------

 -----------------------
 disilane, B3LYP/pcseg-2
 -----------------------
 Symbolic Z-matrix:
 Charge =  0 Multiplicity = 1

 SCF Done:  E(RB3LYP) =  -582.657614721     A.U. after    9 cycles
 Optimization completed.
    -- Stationary point found.
 Normal termination of Gaussian 16 at Fri Sep 29 22:16:49 2023.

 ------------------------------------------------------------------
 #N Geom=AllCheck Guess=TCheck SCRF=Check GenChk RB3LYP/ChkBas Freq
 ------------------------------------------------------------------

 Structure from the checkpoint file:  "si2h6.chk"
 -----------------------
 disilane, B3LYP/pcseg-2
 -----------------------
 Charge =  0 Multiplicity = 1

 SCF Done:  E(RB3LYP) =  -582.657614721     A.U. after    1 cycles

  Exact polarizability:  53.049  -0.000  53.049  -0.000  -0.000  70.132
 Approx polarizability:  75.708  -0.000  75.708  -0.000  -0.000  87.903

                      1                      2                      3
                     A1U                    EU                     EU
 Frequencies --    127.2154               373.3702               373.3702
 Red. masses --      1.0078                 1.0299                 1.0299
 Frc consts  --      0.0096                 0.0846                 0.0846
 IR Inten    --      0.0000                26.4103                26.4100

                      4                      5                      6
                     A1G                    EG                     EG
 Frequencies --    421.2760               632.7474               632.7474
 Red. masses --      7.1071                 1.2054                 1.2054
 Frc consts  --      0.7431                 0.2843                 0.2843
 IR Inten    --      0.0000                 0.0000                 0.0000

                      7                      8                      9
                     A2U                    A1G                    EG
 Frequencies --    853.8582               926.9974               944.4794
 Red. masses --      1.0998                 1.1127                 1.0260
 Frc consts  --      0.4724                 0.5634                 0.5392
 IR Inten    --    542.0022                 0.0000                 0.0000

                     10                     11                     12
                     EG                     EU                     EU
 Frequencies --    944.4794               958.5655               958.5655
 Red. masses --      1.0260                 1.0393                 1.0393
 Frc consts  --      0.5392                 0.5626                 0.5626
 IR Inten    --      0.0000                89.4535                89.4532

                     13                     14                     15
                     A2U                    EG                     EG
 Frequencies --   2211.6376              2219.5804              2219.5804
 Red. masses --      1.0184                 1.0503                 1.0503
 Frc consts  --      2.9349                 3.0486                 3.0486
 IR Inten    --    120.5919                 0.0000                 0.0000

                     16                     17                     18
                     A1G                    EU                     EU
 Frequencies --   2220.6205              2229.1235              2229.1236
 Red. masses --      1.0195                 1.0524                 1.0524
 Frc consts  --      2.9621                 3.0810                 3.0810
 IR Inten    --      0.0000               204.6841               204.6852

 - Thermochemistry -
 -------------------
 Temperature   298.150 Kelvin.  Pressure   1.00000 Atm.
 Atom     1 has atomic number 14 and mass  27.97693

 Molecular mass:    62.00081 amu.
 Principal axes and moments of inertia in atomic units:
                           1         2         3
     Eigenvalues --    41.69918 358.84077 358.84077
           X           -0.00000  -0.35898   0.93335
           Y            0.00000   0.93335   0.35898
           Z            1.00000  -0.00000   0.00000
 This molecule is a prolate symmetric top.
 Rotational symmetry number  6.
 Rotational temperatures (Kelvin)      2.07711     0.24137     0.24137
 Rotational constants (GHZ):          43.28002     5.02936     5.02936
 Zero-point vibrational energy     128463.0 (Joules/Mol)
                                   30.70340 (Kcal/Mol)
 Warning -- explicit consideration of   4 degrees of freedom as
           vibrations may cause significant error
 Vibrational temperatures:    183.03   537.20   537.20   606.12   910.38
          (Kelvin)            910.38  1228.51  1333.74  1358.90  1358.90
                             1379.16  1379.16  3182.05  3193.48  3193.48
                             3194.98  3207.21  3207.21

 Zero-point correction=                           0.048929 (Hartree/Particle)
 Thermal correction to Energy=                    0.053984
 Thermal correction to Enthalpy=                  0.054929
 Thermal correction to Gibbs Free Energy=         0.023815
 Sum of electronic and zero-point Energies=           -582.608686
 Sum of electronic and thermal Energies=              -582.603630
 Sum of electronic and thermal Enthalpies=            -582.602686
 Sum of electronic and thermal Free Energies=         -582.633800

                     E (Thermal)             CV                S
                      KCal/Mol        Cal/Mol-Kelvin    Cal/Mol-Kelvin
 Total                   33.876             17.086             65.484
 Electronic               0.000              0.000              0.000
 Translational            0.889              2.981             38.293
 Rotational               0.889              2.981             19.639
 Vibrational             32.098             11.124              7.551
 Vibration     1          0.611              1.926              2.988
 Vibration     2          0.745              1.527              1.066
 Vibration     3          0.745              1.527              1.066
 Vibration     4          0.784              1.424              0.888

 Optimization completed.
    -- Stationary point found.
 Normal termination of Gaussian 16 at Fri Sep 29 22:17:38 2023.
 Gaussian 16:  ES64L-G16RevB.01 20-Dec-2017

 ---------------------------------
 # rohf/gen geom=check guess=check
 ---------------------------------

 --------------------------
 disilane, ROHF/cc-pVTZ-F12
 --------------------------
 Structure from the checkpoint file:  "si2h6.chk"
 Charge =  0 Multiplicity = 1

                         Standard orientation:
 ---------------------------------------------------------------------
 Center     Atomic      Atomic             Coordinates (Angstroms)
 Number     Number       Type             X           Y           Z
 ---------------------------------------------------------------------
      1         14           0        0.000000    0.000000    1.175689
      2         14           0       -0.000000   -0.000000   -1.175689
      3          1           0       -0.000000    1.389622    1.691690
      4          1           0       -1.203448   -0.694811    1.691690
      5          1           0        1.203448   -0.694811    1.691690
      6          1           0       -0.000000   -1.389622   -1.691690
      7          1           0       -1.203448    0.694811   -1.691690
      8          1           0        1.203448    0.694811   -1.691690
 ---------------------------------------------------------------------

 SCF Done:  E(ROHF) =  -581.383187301     A.U. after    9 cycles

 The electronic state is 1-A1G.
 Alpha  occ. eigenvalues --  -68.77065 -68.77065  -6.12012  -6.11997  -4.22649
 Alpha  occ. eigenvalues --   -4.22617  -4.22617  -4.22609  -4.22609  -4.22579
 Alpha  occ. eigenvalues --   -0.75602  -0.67884  -0.50001  -0.50001  -0.47402
 Alpha  occ. eigenvalues --   -0.47402  -0.40456
 Alpha virt. eigenvalues --    0.03435   0.04923   0.04923   0.04927   0.06342
 Alpha virt. eigenvalues --    0.06446   0.06446   0.11684   0.12387   0.12387
 Alpha virt. eigenvalues --    0.13709   0.13709   0.14894   0.18215   0.23427

 Mulliken charges and spin densities:
               1          2
     1  Si   0.741305   0.000000
     2  Si   0.741305   0.000000
     3  H   -0.247102   0.000000
     4  H   -0.247102   0.000000
     5  H   -0.247102   0.000000
     6  H   -0.247102   0.000000
     7  H   -0.247102   0.000000
     8  H   -0.247102   0.000000
 Sum of Mulliken charges =   0.00000   0.00000

 Dipole moment (field-independent basis, Debye):
    X=              0.0000    Y=             -0.0000    Z=             -0.0000  Tot=              0.0000
 Quadrupole moment (field-independent basis, Debye-Ang):
   XX=            -31.7448   YY=            -31.7448   ZZ=            -32.8483
   XY=              0.0000   XZ=              0.0000   YZ=             -0.0000

 Normal termination of Gaussian 16 at Fri Sep 29 22:17:48 2023.
