 Gaussian 16, Revision B.01,
 Gaussian 16:  ES64L-G16RevB.01 20-Dec-2017

 --------------------
 # b3lyp/gen opt freq
 --------------------

 --------------------------------
 tetrafluorosilane, B3LYP/pcseg-2
 --------------------------------
 Symbolic Z-matrix:
 Charge =  0 Multiplicity = 1

 SCF Done:  E(RB3LYP) =  -689.359961942     A.U. after   10 cycles
 SCF Done:  E(RB3LYP) =  -689.361415526     A.U. after    7 cycles
 SCF Done:  E(RB3LYP) =  -689.361495219     A.U. after    7 cycles
 Optimization completed.
    -- Stationary point found.
 Normal termination of Gaussian 16 at Fri Jun 17 15:06:26 2022.

 ------------------------------------------------------------------
 #N Geom=AllCheck Guess=TCheck SCRF=Check GenChk RB3LYP/ChkBas Freq
 ------------------------------------------------------------------

 Structure from the checkpoint file:  "/wrk/irikura/Gau-12445.chk"
 --------------------------------
 tetrafluorosilane, B3LYP/pcseg-2
 --------------------------------
 Charge =  0 Multiplicity = 1

                         Standard orientation:
 ---------------------------------------------------------------------
 Center     Atomic      Atomic             Coordinates (Angstroms)
 Number     Number       Type             X           Y           Z
 ---------------------------------------------------------------------
      1         14           0        0.000000    0.000000    0.000000
      2          9           0        0.903868    0.903868    0.903868
      3          9           0       -0.903868   -0.903868    0.903868
      4          9           0       -0.903868    0.903868   -0.903868
      5          9           0        0.903868   -0.903868   -0.903868
 ---------------------------------------------------------------------

 SCF Done:  E(RB3LYP) =  -689.361495219     A.U. after    1 cycles

 The electronic state is 1-A1.
 Alpha  occ. eigenvalues --  -66.23621 -24.72106 -24.72106 -24.72106 -24.72105
 Alpha  occ. eigenvalues --   -5.40595  -3.76484  -3.76484  -3.76484  -1.27243
 Alpha  occ. eigenvalues --   -1.23699  -1.23699  -1.23699  -0.62724  -0.55796
 Alpha  occ. eigenvalues --   -0.55796  -0.55796  -0.50499  -0.50499  -0.49622
 Alpha  occ. eigenvalues --   -0.49622  -0.49622  -0.46061  -0.46061  -0.46061
 Alpha virt. eigenvalues --   -0.00129   0.05956   0.05956   0.05956   0.20589
 Alpha virt. eigenvalues --    0.20589   0.20589   0.23304   0.36599   0.36599
 Alpha virt. eigenvalues --    0.37725   0.37725   0.37725   0.44499   0.53682

 Mulliken charges:
               1
     1  Si   1.503278
     2  F   -0.375820
     3  F   -0.375820
     4  F   -0.375820
     5  F   -0.375820
 Sum of Mulliken charges =  -0.00000

 Dipole moment (field-independent basis, Debye):
    X=             -0.0000    Y=             -0.0000    Z=             -0.0000  Tot=              0.0000
 Quadrupole moment (field-independent basis, Debye-Ang):
   XX=            -32.7902   YY=            -32.7902   ZZ=            -32.7902
   XY=              0.0000   XZ=             -0.0000   YZ=              0.0000

  Exact polarizability:  19.199  -0.000  19.199  -0.000  -0.000  19.199
 Approx polarizability:  23.276   0.000  23.276  -0.000  -0.000  23.276

                      1                      2                      3
                      E                      E                     T2
 Frequencies --    258.7857               258.7857               381.8773
 Red. masses --     18.9984                18.9984                20.4353
 Frc consts  --      0.7496                 0.7496                 1.7558
 IR Inten    --      0.0000                 0.0000                48.7354

                      4                      5                      6
                     T2                     T2                     A1
 Frequencies --    381.8773               381.8773               787.0158
 Red. masses --     20.4353                20.4353                18.9984
 Frc consts  --      1.7558                 1.7558                 6.9332
 IR Inten    --     48.7354                48.7354                 0.0000

                      7                      8                      9
                     T2                     T2                     T2
 Frequencies --   1019.9053              1019.9053              1019.9053
 Red. masses --     22.7323                22.7323                22.7323
 Frc consts  --     13.9320                13.9320                13.9320
 IR Inten    --    251.6964               251.6964               251.6964

 - Thermochemistry -
 -------------------
 Temperature   298.150 Kelvin.  Pressure   1.00000 Atm.
 Atom     1 has atomic number 14 and mass  27.97693

 Molecular mass:   103.97054 amu.
 Principal axes and moments of inertia in atomic units:
                           1         2         3
     Eigenvalues --   443.41971 443.41971 443.41971
           X           -0.00000   1.00000   0.00000
           Y            1.00000   0.00000   0.00000
           Z            0.00000   0.00000   1.00000
 This molecule is a spherical top.
 Rotational symmetry number 12.
 Warning -- assumption of classical behavior for rotation
           may cause significant error
 Rotational temperatures (Kelvin)      0.19533     0.19533     0.19533
 Rotational constants (GHZ):           4.07005     4.07005     4.07005
 Zero-point vibrational energy      32956.7 (Joules/Mol)
                                    7.87685 (Kcal/Mol)
 Warning -- explicit consideration of   5 degrees of freedom as
           vibrations may cause significant error
 Vibrational temperatures:    372.33   372.33   549.44   549.44   549.44
          (Kelvin)           1132.34  1467.42  1467.42  1467.42

 Zero-point correction=                           0.012553 (Hartree/Particle)
 Thermal correction to Energy=                    0.017500
 Thermal correction to Enthalpy=                  0.018445
 Thermal correction to Gibbs Free Energy=        -0.013759
 Sum of electronic and zero-point Energies=           -689.348943
 Sum of electronic and thermal Energies=              -689.343995
 Sum of electronic and thermal Enthalpies=            -689.343051
 Sum of electronic and thermal Free Energies=         -689.375254

                     E (Thermal)             CV                S
                      KCal/Mol        Cal/Mol-Kelvin    Cal/Mol-Kelvin
 Total                   10.982             15.724             67.778
 Electronic               0.000              0.000              0.000
 Translational            0.889              2.981             39.834
 Rotational               0.889              2.981             21.031
 Vibrational              9.204              9.762              6.912
 Vibration     1          0.668              1.748              1.670
 Vibration     2          0.668              1.748              1.670
 Vibration     3          0.751              1.509              1.032
 Vibration     4          0.751              1.509              1.032
 Vibration     5          0.751              1.509              1.032

 Optimization completed.
    -- Stationary point found.
 Normal termination of Gaussian 16 at Fri Jun 17 15:06:41 2022.
