 Gaussian 16, Revision B.01,
 Gaussian 16:  ES64L-G16RevB.01 20-Dec-2017

 --------------------
 # b3lyp/gen opt freq
 --------------------

 ----------------------------------
 silicon monohydride, B3LYP/pcseg-2
 ----------------------------------
 Symbolic Z-matrix:
 Charge =  0 Multiplicity = 2

 SCF Done:  E(UB3LYP) =  -290.020364186     A.U. after   12 cycles
 SCF Done:  E(UB3LYP) =  -290.020379683     A.U. after    8 cycles
 Optimization completed.
    -- Stationary point found.
 Normal termination of Gaussian 16 at Fri Jun 17 20:45:48 2022.

 ------------------------------------------------------------------
 #N Geom=AllCheck Guess=TCheck SCRF=Check GenChk UB3LYP/ChkBas Freq
 ------------------------------------------------------------------

 Structure from the checkpoint file:  "/wrk/irikura/Gau-29034.chk"
 ----------------------------------
 silicon monohydride, B3LYP/pcseg-2
 ----------------------------------
 Charge =  0 Multiplicity = 2

                         Standard orientation:
 ---------------------------------------------------------------------
 Center     Atomic      Atomic             Coordinates (Angstroms)
 Number     Number       Type             X           Y           Z
 ---------------------------------------------------------------------
      1         14           0        0.000000    0.000000    0.102038
      2          1           0        0.000000    0.000000   -1.428532
 ---------------------------------------------------------------------

 SCF Done:  E(UB3LYP) =  -290.020379683     A.U. after    1 cycles

 Unable to determine electronic state:  partially filled degenerate orbitals.
 Alpha  occ. eigenvalues --  -66.12461  -5.30131  -3.66333  -3.66004  -3.65340
 Alpha  occ. eigenvalues --   -0.49022  -0.28184  -0.19116
 Alpha virt. eigenvalues --   -0.12600   0.02693   0.10439   0.14147   0.14912
 Alpha virt. eigenvalues --    0.17069   0.34654   0.40853   0.41475   0.44892
 Alpha virt. eigenvalues --    0.45355   0.61950   0.88272   0.88349   1.02987

  Beta  occ. eigenvalues --  -66.12136  -5.29780  -3.66154  -3.65154  -3.64826
  Beta  occ. eigenvalues --   -0.46631  -0.27043
  Beta virt. eigenvalues --   -0.11692  -0.08696   0.03323   0.10731   0.15155
  Beta virt. eigenvalues --    0.16733   0.17795   0.35747   0.41661   0.44172
  Beta virt. eigenvalues --    0.49160   0.49177   0.62990   0.88324   0.89847

 Mulliken charges and spin densities:
               1          2
     1  Si   0.161003   1.020753
     2  H   -0.161003  -0.020753
 Sum of Mulliken charges =   0.00000   1.00000

 Dipole moment (field-independent basis, Debye):
    X=              0.0000    Y=              0.0000    Z=             -0.1364  Tot=              0.1364
 Quadrupole moment (field-independent basis, Debye-Ang):
   XX=            -11.6915   YY=            -16.4500   ZZ=            -16.8591
   XY=              0.0000   XZ=              0.0000   YZ=              0.0000

  Exact polarizability:  19.938   0.000  22.791   0.000  -0.000  33.976
 Approx polarizability:  32.216  -0.000  26.024  -0.000  -0.000  43.195

                      1
                     SG
 Frequencies --   2000.5456
 Red. masses --      1.0428
 Frc consts  --      2.4589
 IR Inten    --    330.1572

 - Thermochemistry -
 -------------------
 Temperature   298.150 Kelvin.  Pressure   1.00000 Atm.
 Atom     1 has atomic number 14 and mass  27.97693

 Molecular mass:    28.98475 amu.
 Principal axes and moments of inertia in atomic units:
                           1         2         3
     Eigenvalues --     0.00000   8.13804   8.13804
           X            0.00000  -0.00000   1.00000
           Y            0.00000   1.00000   0.00000
           Z            1.00000   0.00000   0.00000
 This molecule is a prolate symmetric top.
 Rotational symmetry number  1.
 Rotational temperature (Kelvin)     10.64309
 Rotational constant (GHZ):         221.766078
 Zero-point vibrational energy      11965.9 (Joules/Mol)
                                    2.85992 (Kcal/Mol)
 Vibrational temperatures:   2878.34
          (Kelvin)

 Zero-point correction=                           0.004558 (Hartree/Particle)
 Thermal correction to Energy=                    0.006919
 Thermal correction to Enthalpy=                  0.007863
 Thermal correction to Gibbs Free Energy=        -0.014001
 Sum of electronic and zero-point Energies=           -290.015822
 Sum of electronic and thermal Energies=              -290.013461
 Sum of electronic and thermal Enthalpies=            -290.012517
 Sum of electronic and thermal Free Energies=         -290.034380

                     E (Thermal)             CV                S
                      KCal/Mol        Cal/Mol-Kelvin    Cal/Mol-Kelvin
 Total                    4.342              4.980             46.015
 Electronic               0.000              0.000              1.377
 Translational            0.889              2.981             36.027
 Rotational               0.592              1.987              8.610
 Vibrational              2.860              0.012              0.001

 Optimization completed.
    -- Stationary point found.
 Normal termination of Gaussian 16 at Fri Jun 17 20:45:53 2022.
