 Gaussian 16, Revision B.01,

 ---------------------------------------
 # b3lyp/gen opt freq CPHF(Grid=OneStep)
 ---------------------------------------

 -----------------------------
 dimethylsilane, B3LYP/pcseg-2
 -----------------------------
 Symbolic Z-matrix:
 Charge =  0 Multiplicity = 1

 SCF Done:  E(RB3LYP) =  -370.614188721     A.U. after   10 cycles
 Optimization completed.
    -- Stationary point found.
 Normal termination of Gaussian 16 at Fri Sep 29 23:54:46 2023.

 ------------------------------------------------------------------
 #N Geom=AllCheck Guess=TCheck SCRF=Check GenChk RB3LYP/ChkBas Freq
 ------------------------------------------------------------------

 Structure from the checkpoint file:  "sih2me2.chk"
 -----------------------------
 dimethylsilane, B3LYP/pcseg-2
 -----------------------------
 Charge =  0 Multiplicity = 1

 SCF Done:  E(RB3LYP) =  -370.614188721     A.U. after    1 cycles

  Exact polarizability:  48.676  -0.000  57.772  -0.000   0.000  52.239
 Approx polarizability:  68.761  -0.000  70.843  -0.000   0.000  70.030

                      1                      2                      3
                     A2                     B1                     A1
 Frequencies --    152.9035               170.7603               209.6110
 Red. masses --      1.0223                 1.1035                 2.3608
 Frc consts  --      0.0141                 0.0190                 0.0611
 IR Inten    --      0.0000                 0.0009                 0.9552

                      4                      5                      6
                     B1                     A2                     A1
 Frequencies --    469.8650               588.6718               647.4807
 Red. masses --      1.0858                 1.0301                 3.5606
 Frc consts  --      0.1412                 0.2103                 0.8795
 IR Inten    --     14.3809                 0.0000                 5.3239

                      7                      8                      9
                     B2                     B2                     A1
 Frequencies --    649.8755               719.8067               862.3983
 Red. masses --      1.0928                 3.6439                 1.4266
 Frc consts  --      0.2719                 1.1124                 0.6251
 IR Inten    --     14.7053                18.2635                30.7868

                     10                     11                     12
                     B1                     A2                     B2
 Frequencies --    885.6386               896.5800               933.6551
 Red. masses --      1.4230                 1.1700                 1.2570
 Frc consts  --      0.6576                 0.5541                 0.6456
 IR Inten    --     68.8108                 0.0000               244.4069

                     13                     14                     15
                     A1                     B2                     A1
 Frequencies --    971.4581              1290.9763              1296.9547
 Red. masses --      1.0601                 1.2442                 1.2254
 Frc consts  --      0.5894                 1.2218                 1.2145
 IR Inten    --    107.1021                27.2023                10.4833

                     16                     17                     18
                     A2                     B2                     A1
 Frequencies --   1457.9122              1460.0135              1466.0040
 Red. masses --      1.0522                 1.0519                 1.0485
 Frc consts  --      1.3177                 1.3211                 1.3276
 IR Inten    --      0.0000                 1.6020                 3.3962

                     19                     20                     21
                     B1                     B1                     A1
 Frequencies --   1469.7165              2196.6544              2201.2710
 Red. masses --      1.0474                 1.0505                 1.0302
 Frc consts  --      1.3330                 2.9865                 2.9412
 IR Inten    --      9.2281               167.1172               123.2705

                     22                     23                     24
                     B2                     A1                     A2
 Frequencies --   3029.3691              3029.4137              3097.8820
 Red. masses --      1.0347                 1.0345                 1.1005
 Frc consts  --      5.5946                 5.5935                 6.2225
 IR Inten    --      7.7534                 5.1213                 0.0000

                     25                     26                     27
                     B1                     A1                     B2
 Frequencies --   3099.3511              3102.1162              3102.3844
 Red. masses --      1.1000                 1.1002                 1.1001
 Frc consts  --      6.2257                 6.2377                 6.2386
 IR Inten    --     22.3689                13.3570                 7.2170

 - Thermochemistry -
 -------------------
 Temperature   298.150 Kelvin.  Pressure   1.00000 Atm.
 Atom     1 has atomic number 14 and mass  27.97693

 Molecular mass:    60.03953 amu.
 Principal axes and moments of inertia in atomic units:
                           1         2         3
     Eigenvalues --   106.93139 309.07444 372.97577
           X           -0.00000   0.00000   1.00000
           Y            1.00000   0.00000  -0.00000
           Z           -0.00000   1.00000  -0.00000
 This molecule is an asymmetric top.
 Rotational symmetry number  2.
 Rotational temperatures (Kelvin)      0.81000     0.28024     0.23222
 Rotational constants (GHZ):          16.87756     5.83918     4.83876
 Zero-point vibrational energy     236015.6 (Joules/Mol)
                                   56.40908 (Kcal/Mol)
 Warning -- explicit consideration of   5 degrees of freedom as
           vibrations may cause significant error
 Vibrational temperatures:    219.99   245.69   301.58   676.03   846.97
          (Kelvin)            931.58   935.03  1035.64  1240.80  1274.24
                             1289.98  1343.32  1397.71  1857.43  1866.03
                             2097.61  2100.63  2109.25  2114.59  3160.50
                             3167.14  4358.59  4358.65  4457.16  4459.28
                             4463.25  4463.64

 Zero-point correction=                           0.089894 (Hartree/Particle)
 Thermal correction to Energy=                    0.095616
 Thermal correction to Enthalpy=                  0.096560
 Thermal correction to Gibbs Free Energy=         0.062834
 Sum of electronic and zero-point Energies=           -370.524295
 Sum of electronic and thermal Energies=              -370.518573
 Sum of electronic and thermal Enthalpies=            -370.517629
 Sum of electronic and thermal Free Energies=         -370.551355

                     E (Thermal)             CV                S
                      KCal/Mol        Cal/Mol-Kelvin    Cal/Mol-Kelvin
 Total                   60.000             19.689             70.983
 Electronic               0.000              0.000              0.000
 Translational            0.889              2.981             38.197
 Rotational               0.889              2.981             22.648
 Vibrational             58.222             13.728             10.138
 Vibration     1          0.619              1.899              2.636
 Vibration     2          0.626              1.878              2.427
 Vibration     3          0.642              1.826              2.047
 Vibration     4          0.827              1.317              0.738
 Vibration     5          0.946              1.056              0.470

                           ! Non-Optimized Parameters !
 Normal termination of Gaussian 16 at Fri Sep 29 23:57:17 2023.
 Gaussian 16:  ES64L-G16RevB.01 20-Dec-2017

 ---------------------------------
 # rohf/gen geom=check guess=check
 ---------------------------------

 --------------------------------
 dimethylsilane, ROHF/cc-pVTZ-F12
 --------------------------------
 Structure from the checkpoint file:  "sih2me2.chk"
 Charge =  0 Multiplicity = 1

                         Standard orientation:
 ---------------------------------------------------------------------
 Center     Atomic      Atomic             Coordinates (Angstroms)
 Number     Number       Type             X           Y           Z
 ---------------------------------------------------------------------
      1         14           0        0.000000    0.000000    0.544478
      2          6           0        0.000000    1.556292   -0.508653
      3          6           0       -0.000000   -1.556292   -0.508653
      4          1           0        1.197027   -0.000000    1.425130
      5          1           0       -1.197027    0.000000    1.425130
      6          1           0        0.000000    2.450994    0.115597
      7          1           0        0.882085    1.597430   -1.150076
      8          1           0       -0.882085    1.597430   -1.150076
      9          1           0       -0.000000   -2.450994    0.115597
     10          1           0       -0.882085   -1.597430   -1.150076
     11          1           0        0.882085   -1.597430   -1.150076
 ---------------------------------------------------------------------

 SCF Done:  E(ROHF) =  -369.395930232     A.U. after   10 cycles

 The electronic state is 1-A1.
 Alpha  occ. eigenvalues --  -68.75506 -11.20153 -11.20153  -6.10316  -4.20973
 Alpha  occ. eigenvalues --   -4.20950  -4.20922  -0.95684  -0.92770  -0.66983
 Alpha  occ. eigenvalues --   -0.56989  -0.56531  -0.54601  -0.54575  -0.45467
 Alpha  occ. eigenvalues --   -0.44756  -0.44040
 Alpha virt. eigenvalues --    0.03807   0.04105   0.04836   0.04921   0.08448
 Alpha virt. eigenvalues --    0.09300   0.09433   0.09953   0.10177   0.11654
 Alpha virt. eigenvalues --    0.14083   0.14587   0.16877   0.19620   0.19944

 Mulliken charges and spin densities:
               1          2
     1  Si   1.072924   0.000000
     2  C   -0.479859   0.000000
     3  C   -0.479859   0.000000
     4  H   -0.262441   0.000000
     5  H   -0.262441   0.000000
     6  H    0.063308   0.000000
     7  H    0.071265   0.000000
     8  H    0.071265   0.000000
     9  H    0.063308   0.000000
    10  H    0.071265   0.000000
    11  H    0.071265   0.000000
 Sum of Mulliken charges =   0.00000   0.00000

 Dipole moment (field-independent basis, Debye):
    X=              0.0000    Y=             -0.0000    Z=             -0.7178  Tot=              0.7178
 Quadrupole moment (field-independent basis, Debye-Ang):
   XX=            -29.8691   YY=            -29.2005   ZZ=            -30.5038
   XY=              0.0000   XZ=              0.0000   YZ=             -0.0000

 Normal termination of Gaussian 16 at Fri Sep 29 23:57:53 2023.
