 Gaussian 16, Revision B.01,

 ---------------------------------------
 # b3lyp/gen opt freq CPHF(Grid=OneStep)
 ---------------------------------------

 ---------------------------
 hydroxysilyl, B3LYP/pcseg-2
 ---------------------------
 Symbolic Z-matrix:
 Charge =  0 Multiplicity = 2

 SCF Done:  E(UB3LYP) =  -366.578448854     A.U. after   12 cycles
 Optimization completed.
    -- Stationary point found.
 Normal termination of Gaussian 16 at Fri Sep 29 13:48:23 2023.

 ------------------------------------------------------------------
 #N Geom=AllCheck Guess=TCheck SCRF=Check GenChk UB3LYP/ChkBas Freq
 ------------------------------------------------------------------

 Structure from the checkpoint file:  "sih2oh.chk"
 ---------------------------
 hydroxysilyl, B3LYP/pcseg-2
 ---------------------------
 Charge =  0 Multiplicity = 2

 SCF Done:  E(UB3LYP) =  -366.578448854     A.U. after    1 cycles

  Exact polarizability:  32.270  -0.735  34.958   2.304   0.214  26.392
 Approx polarizability:  40.087  -0.638  44.585   2.543   0.071  32.665

                      1                      2                      3
                      A                      A                      A
 Frequencies --    268.7926               675.0897               774.2863
 Red. masses --      1.0819                 1.0624                 1.2026
 Frc consts  --      0.0461                 0.2853                 0.4248
 IR Inten    --    104.8820                55.8280                56.6104

                      4                      5                      6
                      A                      A                      A
 Frequencies --    827.2305               885.9135               929.5905
 Red. masses --      2.1096                 1.7437                 1.1565
 Frc consts  --      0.8506                 0.8063                 0.5888
 IR Inten    --    235.5437                11.6807                81.1449

                      7                      8                      9
                      A                      A                      A
 Frequencies --   2131.3310              2203.6868              3887.7609
 Red. masses --      1.0345                 1.0492                 1.0669
 Frc consts  --      2.7689                 3.0019                 9.5015
 IR Inten    --    116.3678               142.1901               105.0363

 - Thermochemistry -
 -------------------
 Temperature   298.150 Kelvin.  Pressure   1.00000 Atm.
 Atom     1 has atomic number 14 and mass  27.97693

 Molecular mass:    46.99532 amu.
 Principal axes and moments of inertia in atomic units:
                           1         2         3
     Eigenvalues --    16.14010 120.25026 129.69858
           X            0.99827  -0.03844   0.04441
           Y            0.03762   0.99911   0.01924
           Z           -0.04511  -0.01753   0.99883
 This molecule is an asymmetric top.
 Rotational symmetry number  1.
 Rotational temperatures (Kelvin)      5.36638     0.72028     0.66781
 Rotational constants (GHZ):         111.81723    15.00821    13.91489
 Zero-point vibrational energy      75267.1 (Joules/Mol)
                                   17.98928 (Kcal/Mol)
 Warning -- explicit consideration of   1 degrees of freedom as
           vibrations may cause significant error
 Vibrational temperatures:    386.73   971.30  1114.03  1190.20  1274.63
          (Kelvin)           1337.47  3066.51  3170.61  5593.62

 Zero-point correction=                           0.028668 (Hartree/Particle)
 Thermal correction to Energy=                    0.032347
 Thermal correction to Enthalpy=                  0.033291
 Thermal correction to Gibbs Free Energy=         0.004007
 Sum of electronic and zero-point Energies=           -366.549781
 Sum of electronic and thermal Energies=              -366.546102
 Sum of electronic and thermal Enthalpies=            -366.545158
 Sum of electronic and thermal Free Energies=         -366.574442

                     E (Thermal)             CV                S
                      KCal/Mol        Cal/Mol-Kelvin    Cal/Mol-Kelvin
 Total                   20.298             10.864             61.634
 Electronic               0.000              0.000              1.377
 Translational            0.889              2.981             37.467
 Rotational               0.889              2.981             20.159
 Vibrational             18.520              4.902              2.630
 Vibration     1          0.673              1.731              1.604

 Optimization completed.
    -- Stationary point found.
 Normal termination of Gaussian 16 at Fri Sep 29 13:49:32 2023.
 Gaussian 16:  ES64L-G16RevB.01 20-Dec-2017

 ---------------------------------
 # rohf/gen geom=check guess=check
 ---------------------------------

 ------------------------------
 hydroxysilyl, ROHF/cc-pVTZ-F12
 ------------------------------
 Structure from the checkpoint file:  "sih2oh.chk"
 Charge =  0 Multiplicity = 2

                         Standard orientation:
 ---------------------------------------------------------------------
 Center     Atomic      Atomic             Coordinates (Angstroms)
 Number     Number       Type             X           Y           Z
 ---------------------------------------------------------------------
      1         14           0        0.569511    0.018728   -0.106888
      2          8           0       -1.072870   -0.111956    0.067429
      3          1           0        1.097584    1.211954    0.620680
      4          1           0        1.132705   -1.226905    0.470263
      5          1           0       -1.620478    0.648407   -0.133945
 ---------------------------------------------------------------------

 SCF Done:  E(ROHF) =  -365.596479288     A.U. after   14 cycles

 The electronic state is 2-A.
 Alpha  occ. eigenvalues --  -68.80030 -20.56453  -6.14302  -4.24986  -4.24954
 Alpha  occ. eigenvalues --   -4.24734  -1.34483  -0.75028  -0.62595  -0.55402
 Alpha  occ. eigenvalues --   -0.53457  -0.46980  -0.08293
 Alpha virt. eigenvalues --    0.03794   0.04655   0.05275   0.05555   0.13045
 Alpha virt. eigenvalues --    0.13487   0.15130   0.15730   0.17080   0.18880
 Alpha virt. eigenvalues --    0.23807   0.25439   0.27116   0.27384   0.33305

 Mulliken charges and spin densities:
               1          2
     1  Si   0.907517   0.955148
     2  O   -0.812385  -0.002225
     3  H   -0.234099   0.024777
     4  H   -0.217939   0.021623
     5  H    0.356907   0.000676
 Sum of Mulliken charges =  -0.00000   1.00000

 Dipole moment (field-independent basis, Debye):
    X=             -0.1708    Y=              1.3041    Z=             -0.4007  Tot=              1.3749
 Quadrupole moment (field-independent basis, Debye-Ang):
   XX=            -19.4814   YY=            -20.1503   ZZ=            -21.4804
   XY=             -2.8609   XZ=              0.8539   YZ=             -0.2196

 Normal termination of Gaussian 16 at Fri Sep 29 13:49:42 2023.
