 Gaussian 16, Revision B.01,

 ---------------------------------------
 # b3lyp/gen opt freq CPHF(Grid=OneStep)
 ---------------------------------------

 -----------------------
 silanone, B3LYP/pcseg-2
 -----------------------
 Symbolic Z-matrix:
 Charge =  0 Multiplicity = 1

 SCF Done:  E(RB3LYP) =  -365.978114624     A.U. after   13 cycles
 Optimization completed.
    -- Stationary point found.
 Normal termination of Gaussian 16 at Thu Sep 28 22:14:52 2023.

 ------------------------------------------------------------------
 #N Geom=AllCheck Guess=TCheck SCRF=Check GenChk RB3LYP/ChkBas Freq
 ------------------------------------------------------------------

 Structure from the checkpoint file:  "sih2o.chk"
 -----------------------
 silanone, B3LYP/pcseg-2
 -----------------------
 Charge =  0 Multiplicity = 1

 SCF Done:  E(RB3LYP) =  -365.978114624     A.U. after    1 cycles

  Exact polarizability:  18.406   0.000  27.053  -0.000  -0.000  33.782
 Approx polarizability:  25.731   0.000  33.825  -0.000  -0.000  54.089

                      1                      2                      3
                     B2                     B1                     A1
 Frequencies --    691.3145               702.3252              1016.7486
 Red. masses --      1.2637                 1.2090                 1.0620
 Frc consts  --      0.3558                 0.3514                 0.6469
 IR Inten    --     70.3277                70.1034                47.0237

                      4                      5                      6
                     A1                     A1                     B2
 Frequencies --   1231.7035              2222.1425              2239.6841
 Red. masses --     11.6602                 1.0326                 1.0569
 Frc consts  --     10.4224                 3.0043                 3.1235
 IR Inten    --     84.6437                43.6725               147.4854

 - Thermochemistry -
 -------------------
 Temperature   298.150 Kelvin.  Pressure   1.00000 Atm.
 Atom     1 has atomic number 14 and mass  27.97693

 Molecular mass:    45.98749 amu.
 Principal axes and moments of inertia in atomic units:
                           1         2         3
     Eigenvalues --    10.81468  96.92681 107.74150
           X            0.00000  -0.00000   1.00000
           Y            0.00000   1.00000  -0.00000
           Z            1.00000  -0.00000  -0.00000
 This molecule is an asymmetric top.
 Rotational symmetry number  2.
 Rotational temperatures (Kelvin)      8.00892     0.89360     0.80390
 Rotational constants (GHZ):         166.87877    18.61963    16.75066
 Zero-point vibrational energy      48472.2 (Joules/Mol)
                                   11.58513 (Kcal/Mol)
 Vibrational temperatures:    994.65  1010.49  1462.87  1772.15  3197.17
          (Kelvin)           3222.41

 Zero-point correction=                           0.018462 (Hartree/Particle)
 Thermal correction to Energy=                    0.021572
 Thermal correction to Enthalpy=                  0.022516
 Thermal correction to Gibbs Free Energy=        -0.004154
 Sum of electronic and zero-point Energies=           -365.959653
 Sum of electronic and thermal Energies=              -365.956542
 Sum of electronic and thermal Enthalpies=            -365.955598
 Sum of electronic and thermal Free Energies=         -365.982269

                     E (Thermal)             CV                S
                      KCal/Mol        Cal/Mol-Kelvin    Cal/Mol-Kelvin
 Total                   13.537              8.186             56.133
 Electronic               0.000              0.000              0.000
 Translational            0.889              2.981             37.403
 Rotational               0.889              2.981             17.986
 Vibrational             11.759              2.225              0.745

 Optimization completed.
    -- Stationary point found.
 Normal termination of Gaussian 16 at Thu Sep 28 22:15:08 2023.
 Gaussian 16:  ES64L-G16RevB.01 20-Dec-2017

 ---------------------------------
 # rohf/gen geom=check guess=check
 ---------------------------------

 --------------------------
 silanone, ROHF/cc-pVTZ-F12
 --------------------------
 Structure from the checkpoint file:  "sih2o.chk"
 Charge =  0 Multiplicity = 1

                         Standard orientation:
 ---------------------------------------------------------------------
 Center     Atomic      Atomic             Coordinates (Angstroms)
 Number     Number       Type             X           Y           Z
 ---------------------------------------------------------------------
      1         14           0       -0.000000   -0.000000    0.437001
      2          8           0        0.000000    0.000000   -1.081380
      3          1           0       -0.000000    1.225746    1.266509
      4          1           0       -0.000000   -1.225746    1.266509
 ---------------------------------------------------------------------

 SCF Done:  E(ROHF) =  -364.997673847     A.U. after   11 cycles

 The electronic state is 1-A1.
 Alpha  occ. eigenvalues --  -68.82493 -20.50971  -6.17146  -4.27996  -4.27622
 Alpha  occ. eigenvalues --   -4.27574  -1.24540  -0.70306  -0.55257  -0.52400
 Alpha  occ. eigenvalues --   -0.45477  -0.44424
 Alpha virt. eigenvalues --    0.01492   0.03187   0.04655   0.05509   0.06837
 Alpha virt. eigenvalues --    0.12119   0.13141   0.17628   0.18547   0.19503
 Alpha virt. eigenvalues --    0.22279   0.24498   0.25637   0.27408   0.28193

 Mulliken charges and spin densities:
               1          2
     1  Si   1.157486   0.000000
     2  O   -0.818625   0.000000
     3  H   -0.169431   0.000000
     4  H   -0.169431   0.000000
 Sum of Mulliken charges =  -0.00000   0.00000

 Dipole moment (field-independent basis, Debye):
    X=              0.0000    Y=              0.0000    Z=              4.4749  Tot=              4.4749
 Quadrupole moment (field-independent basis, Debye-Ang):
   XX=            -16.5379   YY=            -19.1763   ZZ=            -22.8393
   XY=             -0.0000   XZ=              0.0000   YZ=              0.0000

 Normal termination of Gaussian 16 at Thu Sep 28 22:15:12 2023.
