 Gaussian 16, Revision B.01,
 Gaussian 16:  ES64L-G16RevB.01 20-Dec-2017

 --------------------
 # b3lyp/gen opt freq
 --------------------

 -----------------------
 silylene, B3LYP/pcseg-2
 -----------------------
 Symbolic Z-matrix:
 Charge =  0 Multiplicity = 3

 SCF Done:  E(UB3LYP) =  -290.601234117     A.U. after   11 cycles
 SCF Done:  E(UB3LYP) =  -290.613801525     A.U. after   11 cycles
 SCF Done:  E(UB3LYP) =  -290.615859056     A.U. after   10 cycles
 SCF Done:  E(UB3LYP) =  -290.615887068     A.U. after    8 cycles
 Optimization completed.
    -- Stationary point found.
 Normal termination of Gaussian 16 at Mon Jun 20 11:25:07 2022.

 ------------------------------------------------------------------
 #N Geom=AllCheck Guess=TCheck SCRF=Check GenChk UB3LYP/ChkBas Freq
 ------------------------------------------------------------------

 Structure from the checkpoint file:  "/wrk/irikura/Gau-15165.chk"
 -----------------------
 silylene, B3LYP/pcseg-2
 -----------------------
 Charge =  0 Multiplicity = 3

                         Standard orientation:
 ---------------------------------------------------------------------
 Center     Atomic      Atomic             Coordinates (Angstroms)
 Number     Number       Type             X           Y           Z
 ---------------------------------------------------------------------
      1         14           0        0.000000    0.000000    0.094791
      2          1           0       -0.000000    1.276222   -0.663537
      3          1           0       -0.000000   -1.276222   -0.663537
 ---------------------------------------------------------------------

 SCF Done:  E(UB3LYP) =  -290.615887068     A.U. after    1 cycles

 The electronic state is 3-B1.
 Alpha  occ. eigenvalues --  -66.11072  -5.29337  -3.65393  -3.65356  -3.64721
 Alpha  occ. eigenvalues --   -0.53623  -0.38041  -0.26506  -0.19859
 Alpha virt. eigenvalues --    0.00806   0.02799   0.09557   0.10913   0.13952
 Alpha virt. eigenvalues --    0.14634   0.25833   0.36079   0.37649   0.39675
 Alpha virt. eigenvalues --    0.41033   0.58769   0.61801   0.78186   0.86713

  Beta  occ. eigenvalues --  -66.10378  -5.28514  -3.64259  -3.64177  -3.63932
  Beta  occ. eigenvalues --   -0.49202  -0.36235
  Beta virt. eigenvalues --   -0.13753  -0.08115   0.02450   0.05052   0.10935
  Beta virt. eigenvalues --    0.11098   0.17135   0.17553   0.28014   0.38354
  Beta virt. eigenvalues --    0.41438   0.45638   0.48414   0.63014   0.63248

 Mulliken charges and spin densities:
               1          2
     1  Si   0.172381   1.876091
     2  H   -0.086190   0.061955
     3  H   -0.086190   0.061955
 Sum of Mulliken charges =   0.00000   2.00000

 Dipole moment (field-independent basis, Debye):
    X=              0.0000    Y=             -0.0000    Z=              0.1680  Tot=              0.1680
 Quadrupole moment (field-independent basis, Debye-Ang):
   XX=            -16.6425   YY=            -15.1143   ZZ=            -14.9673
   XY=             -0.0000   XZ=             -0.0000   YZ=             -0.0000

  Exact polarizability:  21.123  -0.000  31.318  -0.000   0.000  21.761
 Approx polarizability:  25.824   0.000  40.128   0.000  -0.000  27.465

                      1                      2                      3
                     A1                     A1                     B2
 Frequencies --    890.8793              2151.0751              2222.3762
 Red. masses --      1.0586                 1.0250                 1.0595
 Frc consts  --      0.4950                 2.7945                 3.0830
 IR Inten    --     67.3114                13.7813                81.9200

 - Thermochemistry -
 -------------------
 Temperature   298.150 Kelvin.  Pressure   1.00000 Atm.
 Atom     1 has atomic number 14 and mass  27.97693

 Molecular mass:    29.99258 amu.
 Principal axes and moments of inertia in atomic units:
                           1         2         3
     Eigenvalues --     3.86112  11.72372  15.58485
           X            0.00000   0.00000   1.00000
           Y            1.00000   0.00000   0.00000
           Z           -0.00000   1.00000   0.00000
 This molecule is an asymmetric top.
 Rotational symmetry number  2.
 Rotational temperatures (Kelvin)     22.43232     7.38792     5.55757
 Rotational constants (GHZ):         467.41370   153.93925   115.80104
 Zero-point vibrational energy      31487.7 (Joules/Mol)
                                    7.52574 (Kcal/Mol)
 Vibrational temperatures:   1281.78  3094.92  3197.50
          (Kelvin)

 Zero-point correction=                           0.011993 (Hartree/Particle)
 Thermal correction to Energy=                    0.014882
 Thermal correction to Enthalpy=                  0.015826
 Thermal correction to Gibbs Free Energy=        -0.008596
 Sum of electronic and zero-point Energies=           -290.603894
 Sum of electronic and thermal Energies=              -290.601005
 Sum of electronic and thermal Enthalpies=            -290.600061
 Sum of electronic and thermal Free Energies=         -290.624483

                     E (Thermal)             CV                S
                      KCal/Mol        Cal/Mol-Kelvin    Cal/Mol-Kelvin
 Total                    9.339              6.486             51.400
 Electronic               0.000              0.000              2.183
 Translational            0.889              2.981             36.128
 Rotational               0.889              2.981             12.942
 Vibrational              7.561              0.524              0.146

 Optimization completed.
    -- Stationary point found.
 Normal termination of Gaussian 16 at Mon Jun 20 11:25:13 2022.
