 Gaussian 16, Revision B.01,
 Gaussian 16:  ES64L-G16RevB.01 20-Dec-2017

 --------------------
 # b3lyp/gen opt freq
 --------------------

 -----------------------
 silanone, B3LYP/pcseg-2
 -----------------------
 Symbolic Z-matrix:
 Charge =  0 Multiplicity = 1

 SCF Done:  E(RB3LYP) =  -365.978093910     A.U. after   13 cycles
 SCF Done:  E(RB3LYP) =  -365.978113680     A.U. after    7 cycles
 SCF Done:  E(RB3LYP) =  -365.978114624     A.U. after    6 cycles
 Optimization completed.
    -- Stationary point found.
 Normal termination of Gaussian 16 at Wed Jun 15 17:42:29 2022.

 ------------------------------------------------------------------
 #N Geom=AllCheck Guess=TCheck SCRF=Check GenChk RB3LYP/ChkBas Freq
 ------------------------------------------------------------------

 Structure from the checkpoint file:  "/wrk/irikura/Gau-11277.chk"
 -----------------------
 silanone, B3LYP/pcseg-2
 -----------------------
 Charge =  0 Multiplicity = 1

                         Standard orientation:
 ---------------------------------------------------------------------
 Center     Atomic      Atomic             Coordinates (Angstroms)
 Number     Number       Type             X           Y           Z
 ---------------------------------------------------------------------
      1         14           0        0.000000   -0.000000    0.437001
      2          8           0       -0.000000    0.000000   -1.081380
      3          1           0        0.000000    1.225746    1.266509
      4          1           0       -0.000000   -1.225746    1.266509
 ---------------------------------------------------------------------

 SCF Done:  E(RB3LYP) =  -365.978114624     A.U. after    1 cycles

 The electronic state is 1-A1.
 Alpha  occ. eigenvalues --  -66.13109 -19.09438  -5.31541  -3.67823  -3.67047
 Alpha  occ. eigenvalues --   -3.66921  -0.93164  -0.53194  -0.40414  -0.36114
 Alpha  occ. eigenvalues --   -0.32832  -0.29624
 Alpha virt. eigenvalues --   -0.09036  -0.01678   0.02068   0.08601   0.09592
 Alpha virt. eigenvalues --    0.10002   0.13955   0.23764   0.26220   0.33903
 Alpha virt. eigenvalues --    0.36667   0.39074   0.39353   0.49857   0.52717

 Mulliken charges:
               1
     1  Si   0.908726
     2  O   -0.648988
     3  H   -0.129869
     4  H   -0.129869
 Sum of Mulliken charges =   0.00000

 Dipole moment (field-independent basis, Debye):
    X=              0.0000    Y=              0.0000    Z=              3.7849  Tot=              3.7849
 Quadrupole moment (field-independent basis, Debye-Ang):
   XX=            -16.8902   YY=            -19.4393   ZZ=            -22.4427
   XY=             -0.0000   XZ=              0.0000   YZ=             -0.0000

  Exact polarizability:  18.405   0.000  27.054   0.000   0.000  33.783
 Approx polarizability:  25.731   0.000  33.825  -0.000   0.000  54.089

                      1                      2                      3
                     B2                     B1                     A1
 Frequencies --    691.2786               702.3285              1016.7409
 Red. masses --      1.2637                 1.2090                 1.0620
 Frc consts  --      0.3558                 0.3514                 0.6468
 IR Inten    --     70.3324                70.1061                47.0359

                      4                      5                      6
                     A1                     A1                     B2
 Frequencies --   1231.6921              2222.1373              2239.7005
 Red. masses --     11.6611                 1.0326                 1.0569
 Frc consts  --     10.4231                 3.0043                 3.1236
 IR Inten    --     84.6468                43.6775               147.4467

 - Thermochemistry -
 -------------------
 Temperature   298.150 Kelvin.  Pressure   1.00000 Atm.
 Atom     1 has atomic number 14 and mass  27.97693

 Molecular mass:    45.98749 amu.
 Principal axes and moments of inertia in atomic units:
                           1         2         3
     Eigenvalues --    10.81468  96.92686 107.74154
           X            0.00000  -0.00000   1.00000
           Y            0.00000   1.00000  -0.00000
           Z            1.00000  -0.00000  -0.00000
 This molecule is an asymmetric top.
 Rotational symmetry number  2.
 Rotational temperatures (Kelvin)      8.00892     0.89360     0.80390
 Rotational constants (GHZ):         166.87881    18.61962    16.75065
 Zero-point vibrational energy      48472.0 (Joules/Mol)
                                   11.58508 (Kcal/Mol)
 Vibrational temperatures:    994.60  1010.49  1462.86  1772.13  3197.16
          (Kelvin)           3222.43

 Zero-point correction=                           0.018462 (Hartree/Particle)
 Thermal correction to Energy=                    0.021572
 Thermal correction to Enthalpy=                  0.022516
 Thermal correction to Gibbs Free Energy=        -0.004154
 Sum of electronic and zero-point Energies=           -365.959653
 Sum of electronic and thermal Energies=              -365.956542
 Sum of electronic and thermal Enthalpies=            -365.955598
 Sum of electronic and thermal Free Energies=         -365.982269

                     E (Thermal)             CV                S
                      KCal/Mol        Cal/Mol-Kelvin    Cal/Mol-Kelvin
 Total                   13.537              8.186             56.133
 Electronic               0.000              0.000              0.000
 Translational            0.889              2.981             37.403
 Rotational               0.889              2.981             17.986
 Vibrational             11.759              2.225              0.745

 Optimization completed.
    -- Stationary point found.
 Normal termination of Gaussian 16 at Wed Jun 15 17:42:36 2022.
