 Gaussian 16, Revision B.01,
 Gaussian 16:  ES64L-G16RevB.01 20-Dec-2017

 --------------------
 # b3lyp/gen opt freq
 --------------------

 -----------------------------
 dimethylsilane, B3LYP/pcseg-2
 -----------------------------
 Symbolic Z-matrix:
 Charge =  0 Multiplicity = 1

 SCF Done:  E(RB3LYP) =  -370.614129649     A.U. after   10 cycles
 SCF Done:  E(RB3LYP) =  -370.614188720     A.U. after    7 cycles
 Optimization completed.
    -- Stationary point found.
 Normal termination of Gaussian 16 at Fri Jun 17 15:52:05 2022.

 ------------------------------------------------------------------
 #N Geom=AllCheck Guess=TCheck SCRF=Check GenChk RB3LYP/ChkBas Freq
 ------------------------------------------------------------------

 Structure from the checkpoint file:  "/wrk/irikura/Gau-16438.chk"
 -----------------------------
 dimethylsilane, B3LYP/pcseg-2
 -----------------------------
 Charge =  0 Multiplicity = 1

                         Standard orientation:
 ---------------------------------------------------------------------
 Center     Atomic      Atomic             Coordinates (Angstroms)
 Number     Number       Type             X           Y           Z
 ---------------------------------------------------------------------
      1         14           0       -0.000000    0.000000    0.544478
      2          6           0       -0.000000    1.556292   -0.508653
      3          6           0       -0.000000   -1.556292   -0.508653
      4          1           0        1.197027   -0.000000    1.425130
      5          1           0       -1.197027    0.000000    1.425130
      6          1           0       -0.000000    2.450994    0.115597
      7          1           0        0.882085    1.597430   -1.150076
      8          1           0       -0.882085    1.597430   -1.150076
      9          1           0       -0.000000   -2.450994    0.115597
     10          1           0       -0.882085   -1.597430   -1.150076
     11          1           0        0.882085   -1.597430   -1.150076
 ---------------------------------------------------------------------

 SCF Done:  E(RB3LYP) =  -370.614188720     A.U. after    1 cycles

 The electronic state is 1-A1.
 Alpha  occ. eigenvalues --  -66.06924 -10.15284 -10.15284  -5.25417  -3.61179
 Alpha  occ. eigenvalues --   -3.61150  -3.61109  -0.71058  -0.68615  -0.49841
 Alpha  occ. eigenvalues --   -0.42011  -0.41640  -0.39982  -0.39961  -0.32411
 Alpha  occ. eigenvalues --   -0.32061  -0.31614
 Alpha virt. eigenvalues --    0.01030   0.02128   0.05074   0.05977   0.06019
 Alpha virt. eigenvalues --    0.07560   0.08070   0.08607   0.09490   0.10016
 Alpha virt. eigenvalues --    0.13822   0.14346   0.14667   0.17049   0.19715

 Mulliken charges:
               1
     1  Si   0.684316
     2  C   -0.291586
     3  C   -0.291586
     4  H   -0.172692
     5  H   -0.172692
     6  H    0.048432
     7  H    0.036844
     8  H    0.036844
     9  H    0.048432
    10  H    0.036844
    11  H    0.036844
 Sum of Mulliken charges =  -0.00000

 Dipole moment (field-independent basis, Debye):
    X=             -0.0000    Y=             -0.0000    Z=             -0.7398  Tot=              0.7398
 Quadrupole moment (field-independent basis, Debye-Ang):
   XX=            -29.8954   YY=            -29.0773   ZZ=            -30.5119
   XY=             -0.0000   XZ=             -0.0000   YZ=             -0.0000

  Exact polarizability:  48.677  -0.000  57.773  -0.000   0.000  52.240
 Approx polarizability:  68.761  -0.000  70.843   0.000   0.000  70.030

                      1                      2                      3
                     A2                     B1                     A1
 Frequencies --    152.9044               170.7596               209.6107
 Red. masses --      1.0223                 1.1035                 2.3608
 Frc consts  --      0.0141                 0.0190                 0.0611
 IR Inten    --      0.0000                 0.0009                 0.9553

                      4                      5                      6
                     B1                     A2                     A1
 Frequencies --    469.8198               588.6569               647.4795
 Red. masses --      1.0858                 1.0301                 3.5606
 Frc consts  --      0.1412                 0.2103                 0.8795
 IR Inten    --     14.3868                 0.0000                 5.3256

                      7                      8                      9
                     B2                     B2                     A1
 Frequencies --    649.8640               719.8137               862.3984
 Red. masses --      1.0928                 3.6439                 1.4266
 Frc consts  --      0.2719                 1.1124                 0.6251
 IR Inten    --     14.6982                18.2665                30.7888

                     10                     11                     12
                     B1                     A2                     B2
 Frequencies --    885.6376               896.5832               933.6552
 Red. masses --      1.4230                 1.1700                 1.2570
 Frc consts  --      0.6576                 0.5542                 0.6456
 IR Inten    --     68.8146                 0.0000               244.4146

                     13                     14                     15
                     A1                     B2                     A1
 Frequencies --    971.4523              1290.9768              1296.9539
 Red. masses --      1.0601                 1.2442                 1.2254
 Frc consts  --      0.5894                 1.2218                 1.2145
 IR Inten    --    107.1054                27.1978                10.4823

                     16                     17                     18
                     A2                     B2                     A1
 Frequencies --   1457.9173              1460.0151              1466.0039
 Red. masses --      1.0522                 1.0519                 1.0485
 Frc consts  --      1.3177                 1.3211                 1.3276
 IR Inten    --      0.0000                 1.6012                 3.3961

                     19                     20                     21
                     B1                     B1                     A1
 Frequencies --   1469.7159              2196.6731              2201.2549
 Red. masses --      1.0474                 1.0505                 1.0302
 Frc consts  --      1.3330                 2.9866                 2.9411
 IR Inten    --      9.2293               167.0814               123.2940

                     22                     23                     24
                     B2                     A1                     A2
 Frequencies --   3029.3676              3029.4096              3097.8871
 Red. masses --      1.0347                 1.0345                 1.1005
 Frc consts  --      5.5946                 5.5935                 6.2225
 IR Inten    --      7.7576                 5.1214                 0.0000

                     25                     26                     27
                     B1                     A1                     B2
 Frequencies --   3099.3509              3102.1096              3102.3795
 Red. masses --      1.1000                 1.1002                 1.1001
 Frc consts  --      6.2257                 6.2377                 6.2386
 IR Inten    --     22.3671                13.3586                 7.2128

 - Thermochemistry -
 -------------------
 Temperature   298.150 Kelvin.  Pressure   1.00000 Atm.
 Atom     1 has atomic number 14 and mass  27.97693

 Molecular mass:    60.03953 amu.
 Principal axes and moments of inertia in atomic units:
                           1         2         3
     Eigenvalues --   106.93143 309.07444 372.97581
           X           -0.00000   0.00000   1.00000
           Y            1.00000   0.00000   0.00000
           Z           -0.00000   1.00000   0.00000
 This molecule is an asymmetric top.
 Rotational symmetry number  2.
 Rotational temperatures (Kelvin)      0.80999     0.28024     0.23222
 Rotational constants (GHZ):          16.87756     5.83918     4.83876
 Zero-point vibrational energy     236015.1 (Joules/Mol)
                                   56.40897 (Kcal/Mol)
 Warning -- explicit consideration of   5 degrees of freedom as
           vibrations may cause significant error
 Vibrational temperatures:    220.00   245.69   301.58   675.97   846.95
          (Kelvin)            931.58   935.01  1035.65  1240.80  1274.23
                             1289.98  1343.32  1397.70  1857.43  1866.03
                             2097.62  2100.64  2109.25  2114.59  3160.52
                             3167.11  4358.58  4358.64  4457.17  4459.27
                             4463.24  4463.63

 Zero-point correction=                           0.089893 (Hartree/Particle)
 Thermal correction to Energy=                    0.095616
 Thermal correction to Enthalpy=                  0.096560
 Thermal correction to Gibbs Free Energy=         0.062833
 Sum of electronic and zero-point Energies=           -370.524295
 Sum of electronic and thermal Energies=              -370.518573
 Sum of electronic and thermal Enthalpies=            -370.517629
 Sum of electronic and thermal Free Energies=         -370.551355

                     E (Thermal)             CV                S
                      KCal/Mol        Cal/Mol-Kelvin    Cal/Mol-Kelvin
 Total                   60.000             19.689             70.984
 Electronic               0.000              0.000              0.000
 Translational            0.889              2.981             38.197
 Rotational               0.889              2.981             22.648
 Vibrational             58.222             13.728             10.138
 Vibration     1          0.619              1.899              2.636
 Vibration     2          0.626              1.878              2.427
 Vibration     3          0.642              1.826              2.047
 Vibration     4          0.827              1.317              0.738
 Vibration     5          0.946              1.056              0.470

                           ! Non-Optimized Parameters !
 Normal termination of Gaussian 16 at Fri Jun 17 15:52:44 2022.
