 Gaussian 16, Revision B.01,
 Gaussian 16:  ES64L-G16RevB.01 20-Dec-2017

 --------------------
 # b3lyp/gen opt freq
 --------------------

 ---------------------------
 hydroxysilyl, B3LYP/pcseg-2
 ---------------------------
 Symbolic Z-matrix:
 Charge =  0 Multiplicity = 2

 SCF Done:  E(UB3LYP) =  -366.578366304     A.U. after   12 cycles
 SCF Done:  E(UB3LYP) =  -366.578431384     A.U. after    9 cycles
 SCF Done:  E(UB3LYP) =  -366.578442426     A.U. after    8 cycles
 SCF Done:  E(UB3LYP) =  -366.578445155     A.U. after    8 cycles
 SCF Done:  E(UB3LYP) =  -366.578446181     A.U. after    8 cycles
 SCF Done:  E(UB3LYP) =  -366.578447034     A.U. after    8 cycles
 SCF Done:  E(UB3LYP) =  -366.578447848     A.U. after    8 cycles
 SCF Done:  E(UB3LYP) =  -366.578448448     A.U. after    8 cycles
 SCF Done:  E(UB3LYP) =  -366.578448854     A.U. after    8 cycles
 Optimization completed.
    -- Stationary point found.
 Normal termination of Gaussian 16 at Thu Jun 16 10:16:15 2022.

 ------------------------------------------------------------------
 #N Geom=AllCheck Guess=TCheck SCRF=Check GenChk UB3LYP/ChkBas Freq
 ------------------------------------------------------------------

 Structure from the checkpoint file:  "/wrk/irikura/Gau-2784.chk"
 ---------------------------
 hydroxysilyl, B3LYP/pcseg-2
 ---------------------------
 Charge =  0 Multiplicity = 2

                         Standard orientation:
 ---------------------------------------------------------------------
 Center     Atomic      Atomic             Coordinates (Angstroms)
 Number     Number       Type             X           Y           Z
 ---------------------------------------------------------------------
      1         14           0        0.569511    0.018728   -0.106888
      2          8           0       -1.072870   -0.111956    0.067429
      3          1           0        1.097584    1.211954    0.620680
      4          1           0        1.132706   -1.226905    0.470263
      5          1           0       -1.620478    0.648407   -0.133945
 ---------------------------------------------------------------------

 SCF Done:  E(UB3LYP) =  -366.578448854     A.U. after    1 cycles

 The electronic state is 2-A.
 Alpha  occ. eigenvalues --  -66.11107 -19.14119  -5.29168  -3.65255  -3.64876
 Alpha  occ. eigenvalues --   -3.64714  -1.01973  -0.57624  -0.47109  -0.39609
 Alpha  occ. eigenvalues --   -0.37660  -0.33778  -0.20775
 Alpha virt. eigenvalues --   -0.01751   0.03603   0.04657   0.04911   0.11338
 Alpha virt. eigenvalues --    0.12120   0.18229   0.22918   0.23653   0.27486
 Alpha virt. eigenvalues --    0.33253   0.34616   0.36528   0.42022   0.46763

  Beta  occ. eigenvalues --  -66.10788 -19.13785  -5.28777  -3.64660  -3.64491
  Beta  occ. eigenvalues --   -3.64304  -1.01288  -0.56838  -0.45776  -0.38769
  Beta  occ. eigenvalues --   -0.35975  -0.32931
  Beta virt. eigenvalues --   -0.09465  -0.01160   0.04076   0.05432   0.06294
  Beta virt. eigenvalues --    0.11467   0.13611   0.19468   0.23307   0.24518
  Beta virt. eigenvalues --    0.28991   0.33844   0.35582   0.37551   0.42232

 Mulliken charges and spin densities:
               1          2
     1  Si   0.582811   0.861676
     2  O   -0.505842   0.053451
     3  H   -0.150922   0.050808
     4  H   -0.131592   0.035987
     5  H    0.205546  -0.001922
 Sum of Mulliken charges =  -0.00000   1.00000

 Dipole moment (field-independent basis, Debye):
    X=             -0.2276    Y=              1.2940    Z=             -0.5166  Tot=              1.4117
 Quadrupole moment (field-independent basis, Debye-Ang):
   XX=            -19.2202   YY=            -20.3676   ZZ=            -21.5309
   XY=             -2.8268   XZ=              0.5769   YZ=             -0.2375

  Exact polarizability:  32.271  -0.735  34.959   2.304   0.213  26.392
 Approx polarizability:  40.087  -0.638  44.585   2.543   0.071  32.665

                      1                      2                      3
                      A                      A                      A
 Frequencies --    268.7779               675.0994               774.2847
 Red. masses --      1.0819                 1.0624                 1.2026
 Frc consts  --      0.0461                 0.2853                 0.4248
 IR Inten    --    104.8821                55.8321                56.6096

                      4                      5                      6
                      A                      A                      A
 Frequencies --    827.2228               885.9083               929.5891
 Red. masses --      2.1098                 1.7438                 1.1564
 Frc consts  --      0.8506                 0.8063                 0.5888
 IR Inten    --    235.5459                11.6798                81.1428

                      7                      8                      9
                      A                      A                      A
 Frequencies --   2131.3298              2203.6975              3887.7676
 Red. masses --      1.0345                 1.0492                 1.0669
 Frc consts  --      2.7689                 3.0020                 9.5016
 IR Inten    --    116.3450               142.1920               105.0360

 - Thermochemistry -
 -------------------
 Temperature   298.150 Kelvin.  Pressure   1.00000 Atm.
 Atom     1 has atomic number 14 and mass  27.97693

 Molecular mass:    46.99532 amu.
 Principal axes and moments of inertia in atomic units:
                           1         2         3
     Eigenvalues --    16.14009 120.25024 129.69855
           X            0.99827  -0.03844   0.04441
           Y            0.03762   0.99911   0.01924
           Z           -0.04511  -0.01753   0.99883
 This molecule is an asymmetric top.
 Rotational symmetry number  1.
 Rotational temperatures (Kelvin)      5.36638     0.72028     0.66781
 Rotational constants (GHZ):         111.81727    15.00821    13.91489
 Zero-point vibrational energy      75267.1 (Joules/Mol)
                                   17.98927 (Kcal/Mol)
 Warning -- explicit consideration of   1 degrees of freedom as
           vibrations may cause significant error
 Vibrational temperatures:    386.71   971.32  1114.02  1190.19  1274.62
          (Kelvin)           1337.47  3066.51  3170.63  5593.63

 Zero-point correction=                           0.028668 (Hartree/Particle)
 Thermal correction to Energy=                    0.032347
 Thermal correction to Enthalpy=                  0.033291
 Thermal correction to Gibbs Free Energy=         0.004007
 Sum of electronic and zero-point Energies=           -366.549781
 Sum of electronic and thermal Energies=              -366.546102
 Sum of electronic and thermal Enthalpies=            -366.545158
 Sum of electronic and thermal Free Energies=         -366.574442

                     E (Thermal)             CV                S
                      KCal/Mol        Cal/Mol-Kelvin    Cal/Mol-Kelvin
 Total                   20.298             10.864             61.634
 Electronic               0.000              0.000              1.377
 Translational            0.889              2.981             37.467
 Rotational               0.889              2.981             20.159
 Vibrational             18.521              4.902              2.630
 Vibration     1          0.673              1.731              1.604

 Optimization completed.
    -- Stationary point found.
 Normal termination of Gaussian 16 at Thu Jun 16 10:17:01 2022.
