 Gaussian 16, Revision B.01,
 Gaussian 16:  ES64L-G16RevB.01 20-Dec-2017

 --------------------
 # b3lyp/gen opt freq
 --------------------

 --------------------
 silyl, B3LYP/pcseg-2
 --------------------
 Symbolic Z-matrix:
 Charge =  0 Multiplicity = 2

 SCF Done:  E(UB3LYP) =  -291.270234187     A.U. after   11 cycles
 SCF Done:  E(UB3LYP) =  -291.270243228     A.U. after    8 cycles
 Optimization completed.
    -- Stationary point found.
 Normal termination of Gaussian 16 at Thu Jun 16 10:17:16 2022.

 ------------------------------------------------------------------
 #N Geom=AllCheck Guess=TCheck SCRF=Check GenChk UB3LYP/ChkBas Freq
 ------------------------------------------------------------------

 Structure from the checkpoint file:  "/wrk/irikura/Gau-3194.chk"
 --------------------
 silyl, B3LYP/pcseg-2
 --------------------
 Charge =  0 Multiplicity = 2

                         Standard orientation:
 ---------------------------------------------------------------------
 Center     Atomic      Atomic             Coordinates (Angstroms)
 Number     Number       Type             X           Y           Z
 ---------------------------------------------------------------------
      1         14           0        0.000000    0.000000    0.079714
      2          1           0       -0.000000    1.411476   -0.371998
      3          1           0        1.222374   -0.705738   -0.371998
      4          1           0       -1.222374   -0.705738   -0.371998
 ---------------------------------------------------------------------

 SCF Done:  E(UB3LYP) =  -291.270243228     A.U. after    1 cycles

 The electronic state is 2-A1.
 Alpha  occ. eigenvalues --  -66.09678  -5.28147  -3.64350  -3.63694  -3.63694
 Alpha  occ. eigenvalues --   -0.54365  -0.36286  -0.36286  -0.22434
 Alpha virt. eigenvalues --    0.01792   0.02384   0.02384   0.11358   0.11358
 Alpha virt. eigenvalues --    0.12102   0.16300   0.25500   0.25500   0.37215
 Alpha virt. eigenvalues --    0.37215   0.37759   0.53744   0.64962   0.64962

  Beta  occ. eigenvalues --  -66.09321  -5.27720  -3.63442  -3.63442  -3.63255
  Beta  occ. eigenvalues --   -0.52325  -0.35658  -0.35658
  Beta virt. eigenvalues --   -0.11006   0.02350   0.03453   0.03453   0.11442
  Beta virt. eigenvalues --    0.11442   0.14141   0.18138   0.26375   0.26375
  Beta virt. eigenvalues --    0.39063   0.39624   0.39624   0.57979   0.65596

 Mulliken charges and spin densities:
               1          2
     1  Si   0.363359   0.979014
     2  H   -0.121120   0.006995
     3  H   -0.121120   0.006995
     4  H   -0.121120   0.006995
 Sum of Mulliken charges =  -0.00000   1.00000

 Dipole moment (field-independent basis, Debye):
    X=              0.0000    Y=              0.0000    Z=              0.2012  Tot=              0.2012
 Quadrupole moment (field-independent basis, Debye-Ang):
   XX=            -16.0622   YY=            -16.0622   ZZ=            -16.2781
   XY=             -0.0000   XZ=             -0.0000   YZ=             -0.0000

  Exact polarizability:  30.013   0.000  30.014   0.000  -0.000  22.014
 Approx polarizability:  37.955  -0.000  37.955   0.000   0.000  27.573

                      1                      2                      3
                     A1                      E                      E
 Frequencies --    762.6015               937.0454               937.0463
 Red. masses --      1.1037                 1.0444                 1.0444
 Frc consts  --      0.3782                 0.5403                 0.5403
 IR Inten    --     71.6465                63.6457                63.6418

                      4                      5                      6
                     A1                      E                      E
 Frequencies --   2193.4105              2232.9695              2232.9713
 Red. masses --      1.0151                 1.0545                 1.0545
 Frc consts  --      2.8774                 3.0980                 3.0980
 IR Inten    --      5.7084               125.1401               125.1205

 - Thermochemistry -
 -------------------
 Temperature   298.150 Kelvin.  Pressure   1.00000 Atm.
 Atom     1 has atomic number 14 and mass  27.97693

 Molecular mass:    31.00040 amu.
 Principal axes and moments of inertia in atomic units:
                           1         2         3
     Eigenvalues --    12.74346  12.74346  21.51053
           X           -0.25270   0.96754   0.00000
           Y            0.96754   0.25270   0.00000
           Z           -0.00000  -0.00000   1.00000
 This molecule is an oblate symmetric top.
 Rotational symmetry number  3.
 Rotational temperatures (Kelvin)      6.79673     6.79673     4.02658
 Rotational constants (GHZ):         141.62096   141.62096    83.90037
 Zero-point vibrational energy      55602.7 (Joules/Mol)
                                   13.28936 (Kcal/Mol)
 Vibrational temperatures:   1097.21  1348.20  1348.20  3155.83  3212.75
          (Kelvin)           3212.75

 Zero-point correction=                           0.021178 (Hartree/Particle)
 Thermal correction to Energy=                    0.024195
 Thermal correction to Enthalpy=                  0.025139
 Thermal correction to Gibbs Free Energy=         0.000521
 Sum of electronic and zero-point Energies=           -291.249065
 Sum of electronic and thermal Energies=              -291.246048
 Sum of electronic and thermal Enthalpies=            -291.245104
 Sum of electronic and thermal Free Energies=         -291.269722

                     E (Thermal)             CV                S
                      KCal/Mol        Cal/Mol-Kelvin    Cal/Mol-Kelvin
 Total                   15.183              7.594             51.813
 Electronic               0.000              0.000              1.377
 Translational            0.889              2.981             36.227
 Rotational               0.889              2.981             13.726
 Vibrational             13.405              1.632              0.482

 Optimization completed.
    -- Stationary point found.
 Normal termination of Gaussian 16 at Thu Jun 16 10:17:52 2022.
