 Gaussian 16, Revision B.01,
 Gaussian 16:  ES64L-G16RevB.01 20-Dec-2017

 --------------------
 # b3lyp/gen opt freq
 --------------------

 ----------------------
 silanol, B3LYP/pcseg-2
 ----------------------
 Symbolic Z-matrix:
 Charge =  0 Multiplicity = 1

 SCF Done:  E(RB3LYP) =  -367.031552359     A.U. after   11 cycles
 SCF Done:  E(RB3LYP) =  -367.149148674     A.U. after   10 cycles
 SCF Done:  E(RB3LYP) =  -367.228776742     A.U. after   11 cycles
 SCF Done:  E(RB3LYP) =  -367.231271371     A.U. after    9 cycles
 SCF Done:  E(RB3LYP) =  -367.232609649     A.U. after    9 cycles
 SCF Done:  E(RB3LYP) =  -367.232976782     A.U. after    9 cycles
 SCF Done:  E(RB3LYP) =  -367.233079976     A.U. after    9 cycles
 SCF Done:  E(RB3LYP) =  -367.233101813     A.U. after    7 cycles
 SCF Done:  E(RB3LYP) =  -367.233105193     A.U. after    7 cycles
 Optimization completed.
    -- Stationary point found.
 Normal termination of Gaussian 16 at Wed Jun 15 15:22:23 2022.

 ------------------------------------------------------------------
 #N Geom=AllCheck Guess=TCheck SCRF=Check GenChk RB3LYP/ChkBas Freq
 ------------------------------------------------------------------

 Structure from the checkpoint file:  "/wrk/irikura/Gau-11196.chk"
 ----------------------
 silanol, B3LYP/pcseg-2
 ----------------------
 Charge =  0 Multiplicity = 1

                         Standard orientation:
 ---------------------------------------------------------------------
 Center     Atomic      Atomic             Coordinates (Angstroms)
 Number     Number       Type             X           Y           Z
 ---------------------------------------------------------------------
      1         14           0        0.029936   -0.531927    0.000000
      2          8           0        0.029936    1.119393    0.000000
      3          1           0        1.447167   -0.939374    0.000000
      4          1           0       -0.650974   -1.079373    1.198527
      5          1           0       -0.650974   -1.079373   -1.198527
      6          1           0       -0.803806    1.589956   -0.000000
 ---------------------------------------------------------------------

 SCF Done:  E(RB3LYP) =  -367.233105193     A.U. after    1 cycles

 The electronic state is 1-A'.
 Alpha  occ. eigenvalues --  -66.10343 -19.13119  -5.28511  -3.64367  -3.64218
 Alpha  occ. eigenvalues --   -3.64209  -1.01157  -0.57675  -0.47901  -0.38874
 Alpha  occ. eigenvalues --   -0.38523  -0.33586  -0.31422
 Alpha virt. eigenvalues --   -0.01541   0.03399   0.04577   0.05053   0.05758
 Alpha virt. eigenvalues --    0.11379   0.11571   0.21685   0.23490   0.24322
 Alpha virt. eigenvalues --    0.25231   0.27321   0.34369   0.35158   0.39331

 Mulliken charges:
               1
     1  Si   0.828706
     2  O   -0.541190
     3  H   -0.149797
     4  H   -0.170083
     5  H   -0.170083
     6  H    0.202447
 Sum of Mulliken charges =   0.00000

 Dipole moment (field-independent basis, Debye):
    X=             -1.3555    Y=              0.0140    Z=              0.0000  Tot=              1.3556
 Quadrupole moment (field-independent basis, Debye-Ang):
   XX=            -20.2583   YY=            -20.6183   ZZ=            -22.1130
   XY=             -3.0537   XZ=              0.0000   YZ=             -0.0000

  Exact polarizability:  30.743  -0.132  29.278  -0.000   0.000  29.742
 Approx polarizability:  39.574   0.049  36.272   0.000  -0.000  37.311

                      1                      2                      3
                     A"                     A'                     A"
 Frequencies --    197.1368               683.8011               723.9192
 Red. masses --      1.0750                 1.0730                 1.1934
 Frc consts  --      0.0246                 0.2956                 0.3685
 IR Inten    --    114.2299                77.2333                72.8002

                      4                      5                      6
                     A'                     A'                     A"
 Frequencies --    828.7839               898.0267               959.8195
 Red. masses --      2.2445                 1.8208                 1.0529
 Frc consts  --      0.9083                 0.8652                 0.5715
 IR Inten    --    190.8882                 8.8040                83.8831

                      7                      8                      9
                     A'                     A'                     A"
 Frequencies --    977.9344              1008.0888              2210.7922
 Red. masses --      1.0852                 1.1339                 1.0512
 Frc consts  --      0.6115                 0.6789                 3.0272
 IR Inten    --    105.4376               227.5806               185.1532

                     10                     11                     12
                     A'                     A'                     A'
 Frequencies --   2217.5563              2264.7190              3900.4865
 Red. masses --      1.0300                 1.0408                 1.0669
 Frc consts  --      2.9842                 3.1451                 9.5634
 IR Inten    --    102.6124               104.0617                89.8451

 - Thermochemistry -
 -------------------
 Temperature   298.150 Kelvin.  Pressure   1.00000 Atm.
 Atom     1 has atomic number 14 and mass  27.97693

 Molecular mass:    48.00314 amu.
 Principal axes and moments of inertia in atomic units:
                           1         2         3
     Eigenvalues --    23.19883 130.83529 133.35469
           X           -0.03890   0.99924   0.00000
           Y            0.99924   0.03890   0.00000
           Z           -0.00000  -0.00000   1.00000
 This molecule is an asymmetric top.
 Rotational symmetry number  1.
 Rotational temperatures (Kelvin)      3.73355     0.66201     0.64950
 Rotational constants (GHZ):          77.79448    13.79399    13.53339
 Zero-point vibrational energy     100911.4 (Joules/Mol)
                                   24.11840 (Kcal/Mol)
 Warning -- explicit consideration of   1 degrees of freedom as
           vibrations may cause significant error
 Vibrational temperatures:    283.64   983.84  1041.56  1192.44  1292.06
          (Kelvin)           1380.97  1407.03  1450.41  3180.84  3190.57
                             3258.43  5611.93

 Zero-point correction=                           0.038435 (Hartree/Particle)
 Thermal correction to Energy=                    0.042300
 Thermal correction to Enthalpy=                  0.043244
 Thermal correction to Gibbs Free Energy=         0.013997
 Sum of electronic and zero-point Energies=           -367.194670
 Sum of electronic and thermal Energies=              -367.190805
 Sum of electronic and thermal Enthalpies=            -367.189861
 Sum of electronic and thermal Free Energies=         -367.219108

                     E (Thermal)             CV                S
                      KCal/Mol        Cal/Mol-Kelvin    Cal/Mol-Kelvin
 Total                   26.544             11.766             61.556
 Electronic               0.000              0.000              0.000
 Translational            0.889              2.981             37.530
 Rotational               0.889              2.981             20.631
 Vibrational             24.766              5.804              3.395
 Vibration     1          0.637              1.844              2.160

 Optimization completed.
    -- Stationary point found.
 Normal termination of Gaussian 16 at Wed Jun 15 15:24:10 2022.
