 Gaussian 16, Revision B.01,

 ---------------------------------------
 # b3lyp/gen opt freq CPHF(Grid=OneStep)
 ---------------------------------------

 --------------------
 silyl, B3LYP/pcseg-2
 --------------------
 Symbolic Z-matrix:
 Charge =  0 Multiplicity = 2

 SCF Done:  E(UB3LYP) =  -291.270243228     A.U. after   11 cycles
 Optimization completed.
    -- Stationary point found.
 Normal termination of Gaussian 16 at Wed Sep 27 19:02:49 2023.

 ------------------------------------------------------------------
 #N Geom=AllCheck Guess=TCheck SCRF=Check GenChk UB3LYP/ChkBas Freq
 ------------------------------------------------------------------

 Structure from the checkpoint file:  "sih3.chk"
 --------------------
 silyl, B3LYP/pcseg-2
 --------------------
 Charge =  0 Multiplicity = 2

 SCF Done:  E(UB3LYP) =  -291.270243228     A.U. after    1 cycles

  Exact polarizability:  30.014  -0.000  30.014  -0.000  -0.000  22.014
 Approx polarizability:  37.955   0.000  37.955   0.000  -0.000  27.573

                      1                      2                      3
                     A1                      E                      E
 Frequencies --    762.6038               937.0402               937.0402
 Red. masses --      1.1037                 1.0444                 1.0444
 Frc consts  --      0.3782                 0.5403                 0.5403
 IR Inten    --     71.6469                63.6461                63.6462

                      4                      5                      6
                     A1                      E                      E
 Frequencies --   2193.4182              2232.9805              2232.9805
 Red. masses --      1.0151                 1.0545                 1.0545
 Frc consts  --      2.8774                 3.0980                 3.0980
 IR Inten    --      5.7079               125.1276               125.1267

 - Thermochemistry -
 -------------------
 Temperature   298.150 Kelvin.  Pressure   1.00000 Atm.
 Atom     1 has atomic number 14 and mass  27.97693

 Molecular mass:    31.00040 amu.
 Principal axes and moments of inertia in atomic units:
                           1         2         3
     Eigenvalues --    12.74347  12.74347  21.51053
           X            0.31623   0.94868   0.00000
           Y            0.94868  -0.31623   0.00000
           Z            0.00000   0.00000   1.00000
 This molecule is an oblate symmetric top.
 Rotational symmetry number  3.
 Rotational temperatures (Kelvin)      6.79673     6.79673     4.02658
 Rotational constants (GHZ):         141.62091   141.62091    83.90036
 Zero-point vibrational energy      55602.8 (Joules/Mol)
                                   13.28939 (Kcal/Mol)
 Vibrational temperatures:   1097.22  1348.19  1348.19  3155.84  3212.76
          (Kelvin)           3212.76

 Zero-point correction=                           0.021178 (Hartree/Particle)
 Thermal correction to Energy=                    0.024195
 Thermal correction to Enthalpy=                  0.025139
 Thermal correction to Gibbs Free Energy=         0.000521
 Sum of electronic and zero-point Energies=           -291.249065
 Sum of electronic and thermal Energies=              -291.246048
 Sum of electronic and thermal Enthalpies=            -291.245104
 Sum of electronic and thermal Free Energies=         -291.269722

                     E (Thermal)             CV                S
                      KCal/Mol        Cal/Mol-Kelvin    Cal/Mol-Kelvin
 Total                   15.183              7.594             51.813
 Electronic               0.000              0.000              1.377
 Translational            0.889              2.981             36.227
 Rotational               0.889              2.981             13.726
 Vibrational             13.405              1.632              0.482

 Optimization completed.
    -- Stationary point found.
 Normal termination of Gaussian 16 at Wed Sep 27 19:03:08 2023.
 Gaussian 16:  ES64L-G16RevB.01 20-Dec-2017

 ---------------------------------
 # rohf/gen geom=check guess=check
 ---------------------------------

 -----------------------
 silyl, ROHF/cc-pVTZ-F12
 -----------------------
 Structure from the checkpoint file:  "sih3.chk"
 Charge =  0 Multiplicity = 2

                         Standard orientation:
 ---------------------------------------------------------------------
 Center     Atomic      Atomic             Coordinates (Angstroms)
 Number     Number       Type             X           Y           Z
 ---------------------------------------------------------------------
      1         14           0        0.000000    0.000000    0.079714
      2          1           0       -0.000000    1.411476   -0.371998
      3          1           0        1.222374   -0.705738   -0.371998
      4          1           0       -1.222374   -0.705738   -0.371998
 ---------------------------------------------------------------------

 SCF Done:  E(ROHF) =  -290.644517349     A.U. after   11 cycles

 The electronic state is 2-A1.
 Alpha  occ. eigenvalues --  -68.78237  -6.12957  -4.23561  -4.23561  -4.23334
 Alpha  occ. eigenvalues --   -0.69584  -0.48808  -0.48808  -0.08888
 Alpha virt. eigenvalues --    0.04902   0.04902   0.05255   0.05327   0.13620
 Alpha virt. eigenvalues --    0.13620   0.16549   0.25681   0.25681   0.27635
 Alpha virt. eigenvalues --    0.29022   0.29022   0.30616   0.33291   0.33291

 Mulliken charges and spin densities:
               1          2
     1  Si   0.638763   0.947769
     2  H   -0.212921   0.017410
     3  H   -0.212921   0.017410
     4  H   -0.212921   0.017410
 Sum of Mulliken charges =  -0.00000   1.00000

 Dipole moment (field-independent basis, Debye):
    X=              0.0000    Y=              0.0000    Z=             -0.0243  Tot=              0.0243
 Quadrupole moment (field-independent basis, Debye-Ang):
   XX=            -16.1078   YY=            -16.1078   ZZ=            -16.4283
   XY=              0.0000   XZ=             -0.0000   YZ=             -0.0000

 Normal termination of Gaussian 16 at Wed Sep 27 19:03:11 2023.
