 Gaussian 16, Revision B.01,
 Gaussian 16:  ES64L-G16RevB.01 20-Dec-2017

 --------------------
 # b3lyp/gen opt freq
 --------------------

 ---------------------
 silane, B3LYP/pcseg-2
 ---------------------
 Symbolic Z-matrix:
 Charge =  0 Multiplicity = 1

 SCF Done:  E(RB3LYP) =  -291.866556358     A.U. after    8 cycles
 SCF Done:  E(RB3LYP) =  -291.908577574     A.U. after    8 cycles
 SCF Done:  E(RB3LYP) =  -291.924487718     A.U. after    7 cycles
 SCF Done:  E(RB3LYP) =  -291.924518907     A.U. after    6 cycles
 Optimization completed.
    -- Stationary point found.
 Normal termination of Gaussian 16 at Wed Jun 15 10:47:52 2022.

 ------------------------------------------------------------------
 #N Geom=AllCheck Guess=TCheck SCRF=Check GenChk RB3LYP/ChkBas Freq
 ------------------------------------------------------------------

 Structure from the checkpoint file:  "/wrk/irikura/Gau-4551.chk"
 ---------------------
 silane, B3LYP/pcseg-2
 ---------------------
 Charge =  0 Multiplicity = 1

                         Standard orientation:
 ---------------------------------------------------------------------
 Center     Atomic      Atomic             Coordinates (Angstroms)
 Number     Number       Type             X           Y           Z
 ---------------------------------------------------------------------
      1         14           0        0.000000    0.000000    0.000000
      2          1           0        0.854258    0.854258    0.854258
      3          1           0       -0.854258   -0.854258    0.854258
      4          1           0       -0.854258    0.854258   -0.854258
      5          1           0        0.854258   -0.854258   -0.854258
 ---------------------------------------------------------------------

 SCF Done:  E(RB3LYP) =  -291.924518907     A.U. after    1 cycles

 The electronic state is 1-A1.
 Alpha  occ. eigenvalues --  -66.08322  -5.26980  -3.62695  -3.62695  -3.62695
 Alpha  occ. eigenvalues --   -0.54989  -0.35541  -0.35541  -0.35541
 Alpha virt. eigenvalues --    0.02065   0.02547   0.02547   0.02547   0.11575
 Alpha virt. eigenvalues --    0.11575   0.11575   0.23047   0.25785   0.25785
 Alpha virt. eigenvalues --    0.25785   0.36116   0.36116   0.41927   0.66043

 Mulliken charges:
               1
     1  Si   0.568946
     2  H   -0.142237
     3  H   -0.142237
     4  H   -0.142237
     5  H   -0.142237
 Sum of Mulliken charges =   0.00000

 Dipole moment (field-independent basis, Debye):
    X=             -0.0000    Y=              0.0000    Z=              0.0000  Tot=              0.0000
 Quadrupole moment (field-independent basis, Debye-Ang):
   XX=            -16.6906   YY=            -16.6906   ZZ=            -16.6906
   XY=              0.0000   XZ=              0.0000   YZ=              0.0000

  Exact polarizability:  28.220  -0.000  28.220  -0.000  -0.000  28.220
 Approx polarizability:  36.035   0.000  36.035   0.000  -0.000  36.035

                      1                      2                      3
                     T2                     T2                     T2
 Frequencies --    924.3894               924.3894               924.3894
 Red. masses --      1.0955                 1.0955                 1.0955
 Frc consts  --      0.5515                 0.5515                 0.5515
 IR Inten    --    149.2125               149.2125               149.2125

                      4                      5                      6
                      E                      E                     A1
 Frequencies --    978.5420               978.5420              2237.3097
 Red. masses --      1.0078                 1.0078                 1.0078
 Frc consts  --      0.5686                 0.5686                 2.9723
 IR Inten    --      0.0000                 0.0000                 0.0000

                      7                      8                      9
                     T2                     T2                     T2
 Frequencies --   2243.0715              2243.0715              2243.0715
 Red. masses --      1.0514                 1.0514                 1.0514
 Frc consts  --      3.1166                 3.1166                 3.1166
 IR Inten    --    119.6468               119.6468               119.6468

 - Thermochemistry -
 -------------------
 Temperature   298.150 Kelvin.  Pressure   1.00000 Atm.
 Atom     1 has atomic number 14 and mass  27.97693

 Molecular mass:    32.00823 amu.
 Principal axes and moments of inertia in atomic units:
                           1         2         3
     Eigenvalues --    21.01120  21.01120  21.01120
           X           -0.24254   0.00000   0.97014
           Y            0.97014   0.00000   0.24254
           Z           -0.00000   1.00000   0.00000
 This molecule is a spherical top.
 Rotational symmetry number 12.
 Rotational temperatures (Kelvin)      4.12227     4.12227     4.12227
 Rotational constants (GHZ):          85.89424    85.89424    85.89424
 Zero-point vibrational energy      81924.9 (Joules/Mol)
                                   19.58052 (Kcal/Mol)
 Vibrational temperatures:   1329.99  1329.99  1329.99  1407.90  1407.90
          (Kelvin)           3218.99  3227.28  3227.28  3227.28

 Zero-point correction=                           0.031204 (Hartree/Particle)
 Thermal correction to Energy=                    0.034265
 Thermal correction to Enthalpy=                  0.035209
 Thermal correction to Gibbs Free Energy=         0.011999
 Sum of electronic and zero-point Energies=           -291.893315
 Sum of electronic and thermal Energies=              -291.890254
 Sum of electronic and thermal Enthalpies=            -291.889310
 Sum of electronic and thermal Free Energies=         -291.912520

                     E (Thermal)             CV                S
                      KCal/Mol        Cal/Mol-Kelvin    Cal/Mol-Kelvin
 Total                   21.501              8.186             48.850
 Electronic               0.000              0.000              0.000
 Translational            0.889              2.981             36.322
 Rotational               0.889              2.981             11.942
 Vibrational             19.724              2.224              0.586

 Optimization completed.
    -- Stationary point found.
 Normal termination of Gaussian 16 at Wed Jun 15 10:48:21 2022.
