 Gaussian 16, Revision B.01,

 ---------------------------------------
 # b3lyp/gen opt freq CPHF(Grid=OneStep)
 ---------------------------------------

 ---------------------
 silane, B3LYP/pcseg-2
 ---------------------
 Symbolic Z-matrix:
 Charge =  0 Multiplicity = 1

 SCF Done:  E(RB3LYP) =  -291.924518907     A.U. after    8 cycles
 Optimization completed.
    -- Stationary point found.
 Normal termination of Gaussian 16 at Sat Sep 30 21:15:33 2023.

 ------------------------------------------------------------------
 #N Geom=AllCheck Guess=TCheck SCRF=Check GenChk RB3LYP/ChkBas Freq
 ------------------------------------------------------------------

 Structure from the checkpoint file:  "sih4.chk"
 ---------------------
 silane, B3LYP/pcseg-2
 ---------------------
 Charge =  0 Multiplicity = 1

 SCF Done:  E(RB3LYP) =  -291.924518907     A.U. after    1 cycles

  Exact polarizability:  28.219  -0.000  28.219  -0.000  -0.000  28.219
 Approx polarizability:  36.035  -0.000  36.035  -0.000   0.000  36.035

                      1                      2                      3
                     T2                     T2                     T2
 Frequencies --    924.3889               924.3889               924.3889
 Red. masses --      1.0955                 1.0955                 1.0955
 Frc consts  --      0.5515                 0.5515                 0.5515
 IR Inten    --    149.2181               149.2181               149.2181

                      4                      5                      6
                      E                      E                     A1
 Frequencies --    978.5517               978.5517              2237.3134
 Red. masses --      1.0078                 1.0078                 1.0078
 Frc consts  --      0.5686                 0.5686                 2.9723
 IR Inten    --      0.0000                 0.0000                 0.0000

                      7                      8                      9
                     T2                     T2                     T2
 Frequencies --   2243.0530              2243.0530              2243.0530
 Red. masses --      1.0514                 1.0514                 1.0514
 Frc consts  --      3.1166                 3.1166                 3.1166
 IR Inten    --    119.6805               119.6805               119.6805

 - Thermochemistry -
 -------------------
 Temperature   298.150 Kelvin.  Pressure   1.00000 Atm.
 Atom     1 has atomic number 14 and mass  27.97693

 Molecular mass:    32.00823 amu.
 Principal axes and moments of inertia in atomic units:
                           1         2         3
     Eigenvalues --    21.01121  21.01121  21.01121
           X            0.00000   1.00000  -0.00000
           Y            0.00000   0.00000   1.00000
           Z            1.00000   0.00000   0.00000
 This molecule is a spherical top.
 Rotational symmetry number 12.
 Rotational temperatures (Kelvin)      4.12227     4.12227     4.12227
 Rotational constants (GHZ):          85.89422    85.89422    85.89422
 Zero-point vibrational energy      81924.7 (Joules/Mol)
                                   19.58048 (Kcal/Mol)
 Vibrational temperatures:   1329.99  1329.99  1329.99  1407.92  1407.92
          (Kelvin)           3218.99  3227.25  3227.25  3227.25

 Zero-point correction=                           0.031203 (Hartree/Particle)
 Thermal correction to Energy=                    0.034265
 Thermal correction to Enthalpy=                  0.035209
 Thermal correction to Gibbs Free Energy=         0.011999
 Sum of electronic and zero-point Energies=           -291.893315
 Sum of electronic and thermal Energies=              -291.890254
 Sum of electronic and thermal Enthalpies=            -291.889310
 Sum of electronic and thermal Free Energies=         -291.912520

                     E (Thermal)             CV                S
                      KCal/Mol        Cal/Mol-Kelvin    Cal/Mol-Kelvin
 Total                   21.501              8.186             48.850
 Electronic               0.000              0.000              0.000
 Translational            0.889              2.981             36.322
 Rotational               0.889              2.981             11.942
 Vibrational             19.724              2.224              0.586

 Optimization completed.
    -- Stationary point found.
 Normal termination of Gaussian 16 at Sat Sep 30 21:15:49 2023.
 Gaussian 16:  ES64L-G16RevB.01 20-Dec-2017

 ---------------------------------
 # rohf/gen geom=check guess=check
 ---------------------------------

 ------------------------
 silane, ROHF/cc-pVTZ-F12
 ------------------------
 Structure from the checkpoint file:  "sih4.chk"
 Charge =  0 Multiplicity = 1

                         Standard orientation:
 ---------------------------------------------------------------------
 Center     Atomic      Atomic             Coordinates (Angstroms)
 Number     Number       Type             X           Y           Z
 ---------------------------------------------------------------------
      1         14           0        0.000000    0.000000    0.000000
      2          1           0        0.854258    0.854258    0.854258
      3          1           0       -0.854258   -0.854258    0.854258
      4          1           0       -0.854258    0.854258   -0.854258
      5          1           0        0.854258   -0.854258   -0.854258
 ---------------------------------------------------------------------

 SCF Done:  E(ROHF) =  -291.267565047     A.U. after    8 cycles

 The electronic state is 1-A1.
 Alpha  occ. eigenvalues --  -68.77179  -6.12074  -4.22696  -4.22696  -4.22696
 Alpha  occ. eigenvalues --   -0.72980  -0.48669  -0.48669  -0.48669
 Alpha virt. eigenvalues --    0.04912   0.04912   0.04912   0.05218   0.13599
 Alpha virt. eigenvalues --    0.13599   0.13599   0.22313   0.25756   0.25756
 Alpha virt. eigenvalues --    0.25756   0.28825   0.28825   0.33204   0.33204

 Mulliken charges and spin densities:
               1          2
     1  Si   0.893908   0.000000
     2  H   -0.223477   0.000000
     3  H   -0.223477   0.000000
     4  H   -0.223477   0.000000
     5  H   -0.223477   0.000000
 Sum of Mulliken charges =  -0.00000   0.00000

 Dipole moment (field-independent basis, Debye):
    X=             -0.0000    Y=              0.0000    Z=             -0.0000  Tot=              0.0000
 Quadrupole moment (field-independent basis, Debye-Ang):
   XX=            -16.7505   YY=            -16.7505   ZZ=            -16.7505
   XY=             -0.0000   XZ=             -0.0000   YZ=              0.0000

 Normal termination of Gaussian 16 at Sat Sep 30 21:15:52 2023.
