 Gaussian 16, Revision B.01,

 ---------------------------------------
 # b3lyp/gen opt freq CPHF(Grid=OneStep)
 ---------------------------------------

 ------------------------------
 trimethylsilane, B3LYP/pcseg-2
 ------------------------------
 Symbolic Z-matrix:
 Charge =  0 Multiplicity = 1

 SCF Done:  E(RB3LYP) =  -409.958941979     A.U. after   10 cycles
 Optimization completed.
    -- Stationary point found.
 Normal termination of Gaussian 16 at Sat Sep 30 14:24:39 2023.

 ------------------------------------------------------------------
 #N Geom=AllCheck Guess=TCheck SCRF=Check GenChk RB3LYP/ChkBas Freq
 ------------------------------------------------------------------

 Structure from the checkpoint file:  "sihme3.chk"
 ------------------------------
 trimethylsilane, B3LYP/pcseg-2
 ------------------------------
 Charge =  0 Multiplicity = 1

 SCF Done:  E(RB3LYP) =  -409.958941979     A.U. after    1 cycles

  Exact polarizability:  67.151   0.000  67.151   0.000   0.000  59.475
 Approx polarizability:  86.628  -0.000  86.628   0.000  -0.000  85.184

                      1                      2                      3
                     A2                      E                      E
 Frequencies --    144.2659               162.6478               162.6478
 Red. masses --      1.0114                 1.0443                 1.0443
 Frc consts  --      0.0124                 0.0163                 0.0163
 IR Inten    --      0.0000                 0.0007                 0.0007

                      4                      5                      6
                      E                      E                     A1
 Frequencies --    205.1644               205.1645               244.9449
 Red. masses --      2.2706                 2.2706                 2.3857
 Frc consts  --      0.0563                 0.0563                 0.0843
 IR Inten    --      1.0736                 1.0736                 2.3504

                      7                      8                      9
                     A1                      E                      E
 Frequencies --    611.9512               625.5751               625.5752
 Red. masses --      3.5149                 1.0646                 1.0646
 Frc consts  --      0.7755                 0.2455                 0.2455
 IR Inten    --      2.3328                10.9863                10.9870

                     10                     11                     12
                     A2                      E                      E
 Frequencies --    687.4380               703.4448               703.4451
 Red. masses --      1.1669                 3.1755                 3.1755
 Frc consts  --      0.3249                 0.9258                 0.9258
 IR Inten    --      0.0000                17.0672                17.0676

                     13                     14                     15
                      E                      E                     A1
 Frequencies --    853.8140               853.8142               875.7966
 Red. masses --      1.3916                 1.3916                 1.5364
 Frc consts  --      0.5977                 0.5977                 0.6943
 IR Inten    --     17.9028                17.9030                56.7211

                     16                     17                     18
                      E                      E                      E
 Frequencies --    922.0315               922.0317              1290.2722
 Red. masses --      1.3044                 1.3044                 1.2478
 Frc consts  --      0.6534                 0.6534                 1.2240
 IR Inten    --    164.8442               164.8431                31.9568

                     19                     20                     21
                      E                     A1                     A2
 Frequencies --   1290.2722              1299.3223              1454.5716
 Red. masses --      1.2478                 1.2211                 1.0547
 Frc consts  --      1.2240                 1.2146                 1.3148
 IR Inten    --     31.9568                 5.6118                 0.0000

                     22                     23                     24
                      E                      E                      E
 Frequencies --   1458.2467              1458.2467              1467.0574
 Red. masses --      1.0523                 1.0523                 1.0485
 Frc consts  --      1.3184                 1.3184                 1.3295
 IR Inten    --      0.0936                 0.0936                 4.0293

                     25                     26                     27
                      E                     A1                     A1
 Frequencies --   1467.0574              1474.1863              2179.1136
 Red. masses --      1.0485                 1.0462                 1.0402
 Frc consts  --      1.3295                 1.3396                 2.9102
 IR Inten    --      4.0290                11.7321               167.7072

                     28                     29                     30
                      E                      E                     A1
 Frequencies --   3024.7484              3024.7484              3025.7411
 Red. masses --      1.0350                 1.0350                 1.0348
 Frc consts  --      5.5793                 5.5793                 5.5817
 IR Inten    --      9.1811                 9.1813                 3.5461

                     31                     32                     33
                      E                      E                     A1
 Frequencies --   3091.6904              3091.6904              3093.7864
 Red. masses --      1.1000                 1.1000                 1.0993
 Frc consts  --      6.1947                 6.1947                 6.1992
 IR Inten    --      1.1525                 1.1526                34.6987

                     34                     35                     36
                     A2                      E                      E
 Frequencies --   3096.6633              3097.5392              3097.5392
 Red. masses --      1.1002                 1.0999                 1.0999
 Frc consts  --      6.2160                 6.2176                 6.2176
 IR Inten    --      0.0000                20.8865                20.8873

 - Thermochemistry -
 -------------------
 Temperature   298.150 Kelvin.  Pressure   1.00000 Atm.
 Atom     1 has atomic number 14 and mass  27.97693

 Molecular mass:    74.05518 amu.
 Principal axes and moments of inertia in atomic units:
                           1         2         3
     Eigenvalues --   341.20822 341.20822 579.18445
           X           -0.18473   0.98279   0.00000
           Y            0.98279   0.18473   0.00000
           Z           -0.00000  -0.00000   1.00000
 This molecule is an oblate symmetric top.
 Rotational symmetry number  3.
 Rotational temperatures (Kelvin)      0.25384     0.25384     0.14954
 Rotational constants (GHZ):           5.28927     5.28927     3.11600
 Zero-point vibrational energy     310982.7 (Joules/Mol)
                                   74.32665 (Kcal/Mol)
 Warning -- explicit consideration of   7 degrees of freedom as
           vibrations may cause significant error
 Vibrational temperatures:    207.57   234.01   234.01   295.19   295.19
          (Kelvin)            352.42   880.46   900.06   900.06   989.07
                             1012.10  1012.10  1228.45  1228.45  1260.08
                             1326.60  1326.60  1856.41  1856.41  1869.43
                             2092.80  2098.09  2098.09  2110.77  2110.77
                             2121.03  3135.26  4351.94  4351.94  4353.37
                             4448.25  4448.25  4451.27  4455.41  4456.67
                             4456.67

 Zero-point correction=                           0.118447 (Hartree/Particle)
 Thermal correction to Energy=                    0.125918
 Thermal correction to Enthalpy=                  0.126862
 Thermal correction to Gibbs Free Energy=         0.089251
 Sum of electronic and zero-point Energies=           -409.840495
 Sum of electronic and thermal Energies=              -409.833024
 Sum of electronic and thermal Enthalpies=            -409.832080
 Sum of electronic and thermal Free Energies=         -409.869691

                     E (Thermal)             CV                S
                      KCal/Mol        Cal/Mol-Kelvin    Cal/Mol-Kelvin
 Total                   79.015             26.125             79.160
 Electronic               0.000              0.000              0.000
 Translational            0.889              2.981             38.823
 Rotational               0.889              2.981             23.531
 Vibrational             77.237             20.163             16.806
 Vibration     1          0.616              1.909              2.747
 Vibration     2          0.623              1.888              2.519
 Vibration     3          0.623              1.888              2.519
 Vibration     4          0.640              1.833              2.086
 Vibration     5          0.640              1.833              2.086
 Vibration     6          0.660              1.771              1.767
 Vibration     7          0.971              1.007              0.430

                           ! Non-Optimized Parameters !
 Normal termination of Gaussian 16 at Sat Sep 30 14:30:55 2023.
 Gaussian 16:  ES64L-G16RevB.01 20-Dec-2017

 ---------------------------------
 # rohf/gen geom=check guess=check
 ---------------------------------

 ---------------------------------
 trimethylsilane, ROHF/cc-pVTZ-F12
 ---------------------------------
 Structure from the checkpoint file:  "sihme3.chk"
 Charge =  0 Multiplicity = 1

                         Standard orientation:
 ---------------------------------------------------------------------
 Center     Atomic      Atomic             Coordinates (Angstroms)
 Number     Number       Type             X           Y           Z
 ---------------------------------------------------------------------
      1         14           0        0.000000    0.000000    0.373463
      2          1           0        0.000000    0.000000    1.862577
      3          6           0        0.000000    1.784994   -0.221032
      4          6           0        1.545850   -0.892497   -0.221032
      5          6           0       -1.545850   -0.892497   -0.221032
      6          1           0        0.000000    1.838953   -1.311872
      7          1           0        0.880933    2.320727    0.137189
      8          1           0       -0.880933    2.320727    0.137189
      9          1           0        1.592580   -0.919477   -1.311872
     10          1           0        1.569342   -1.923274    0.137189
     11          1           0        2.450275   -0.397453    0.137189
     12          1           0       -1.592580   -0.919477   -1.311872
     13          1           0       -2.450275   -0.397453    0.137189
     14          1           0       -1.569342   -1.923274    0.137189
 ---------------------------------------------------------------------

 SCF Done:  E(ROHF) =  -408.459821123     A.U. after    9 cycles

 The electronic state is 1-A1.
 Alpha  occ. eigenvalues --  -68.74835 -11.19592 -11.19592 -11.19591  -6.09613
 Alpha  occ. eigenvalues --   -4.20278  -4.20240  -4.20240  -0.96421  -0.92280
 Alpha  occ. eigenvalues --   -0.92280  -0.64484  -0.57156  -0.55977  -0.55977
 Alpha  occ. eigenvalues --   -0.54082  -0.54082  -0.53004  -0.44036  -0.43106
 Alpha  occ. eigenvalues --   -0.43106
 Alpha virt. eigenvalues --    0.03765   0.04160   0.04160   0.04606   0.08500
 Alpha virt. eigenvalues --    0.08500   0.09293   0.09293   0.09475   0.11512
 Alpha virt. eigenvalues --    0.12067   0.12067   0.12471   0.14692   0.14692

 Mulliken charges and spin densities:
               1          2
     1  Si   1.194401   0.000000
     2  H   -0.276009   0.000000
     3  C   -0.526892   0.000000
     4  C   -0.526892   0.000000
     5  C   -0.526892   0.000000
     6  H    0.078696   0.000000
     7  H    0.071033   0.000000
     8  H    0.071033   0.000000
     9  H    0.078696   0.000000
    10  H    0.071033   0.000000
    11  H    0.071033   0.000000
    12  H    0.078696   0.000000
    13  H    0.071033   0.000000
    14  H    0.071033   0.000000
 Sum of Mulliken charges =  -0.00000   0.00000

 Dipole moment (field-independent basis, Debye):
    X=             -0.0000    Y=              0.0000    Z=             -0.5324  Tot=              0.5324
 Quadrupole moment (field-independent basis, Debye-Ang):
   XX=            -36.0770   YY=            -36.0770   ZZ=            -36.9233
   XY=              0.0000   XZ=              0.0000   YZ=              0.0000

 Normal termination of Gaussian 16 at Sat Sep 30 14:31:44 2023.
