 Gaussian 16, Revision B.01,
 Gaussian 16:  ES64L-G16RevB.01 20-Dec-2017

 --------------------
 # b3lyp/gen opt freq
 --------------------

 ------------------------------
 trimethylsilane, B3LYP/pcseg-2
 ------------------------------
 Symbolic Z-matrix:
 Charge =  0 Multiplicity = 1

 SCF Done:  E(RB3LYP) =  -409.958860038     A.U. after   10 cycles
 SCF Done:  E(RB3LYP) =  -409.958941979     A.U. after    7 cycles
 Optimization completed.
    -- Stationary point found.
 Normal termination of Gaussian 16 at Thu Jun 16 08:27:16 2022.

 ------------------------------------------------------------------
 #N Geom=AllCheck Guess=TCheck SCRF=Check GenChk RB3LYP/ChkBas Freq
 ------------------------------------------------------------------

 Structure from the checkpoint file:  "/wrk/irikura/Gau-17399.chk"
 ------------------------------
 trimethylsilane, B3LYP/pcseg-2
 ------------------------------
 Charge =  0 Multiplicity = 1

                         Standard orientation:
 ---------------------------------------------------------------------
 Center     Atomic      Atomic             Coordinates (Angstroms)
 Number     Number       Type             X           Y           Z
 ---------------------------------------------------------------------
      1         14           0        0.000000    0.000000    0.373463
      2          1           0        0.000000    0.000000    1.862577
      3          6           0        0.000000    1.784994   -0.221032
      4          6           0        1.545850   -0.892497   -0.221032
      5          6           0       -1.545850   -0.892497   -0.221032
      6          1           0        0.000000    1.838953   -1.311872
      7          1           0        0.880933    2.320727    0.137189
      8          1           0       -0.880933    2.320727    0.137189
      9          1           0        1.592580   -0.919477   -1.311872
     10          1           0        1.569341   -1.923274    0.137189
     11          1           0        2.450275   -0.397453    0.137189
     12          1           0       -1.592580   -0.919477   -1.311872
     13          1           0       -2.450275   -0.397453    0.137189
     14          1           0       -1.569341   -1.923274    0.137189
 ---------------------------------------------------------------------

 SCF Done:  E(RB3LYP) =  -409.958941979     A.U. after    1 cycles

 The electronic state is 1-A1.
 Alpha  occ. eigenvalues --  -66.06406 -10.14715 -10.14715 -10.14714  -5.24829
 Alpha  occ. eigenvalues --   -3.60600  -3.60545  -3.60545  -0.71562  -0.68125
 Alpha  occ. eigenvalues --   -0.68125  -0.47774  -0.42091  -0.41102  -0.41102
 Alpha  occ. eigenvalues --   -0.39486  -0.39486  -0.38531  -0.31197  -0.30668
 Alpha  occ. eigenvalues --   -0.30668
 Alpha virt. eigenvalues --    0.00940   0.03320   0.03320   0.05241   0.07212
 Alpha virt. eigenvalues --    0.07212   0.07984   0.09118   0.09118   0.10301
 Alpha virt. eigenvalues --    0.10301   0.10767   0.11596   0.14696   0.14696

 Mulliken charges:
               1
     1  Si   0.716397
     2  H   -0.178533
     3  C   -0.295288
     4  C   -0.295288
     5  C   -0.295288
     6  H    0.032889
     7  H    0.041556
     8  H    0.041556
     9  H    0.032889
    10  H    0.041556
    11  H    0.041556
    12  H    0.032889
    13  H    0.041556
    14  H    0.041556
 Sum of Mulliken charges =   0.00000

 Dipole moment (field-independent basis, Debye):
    X=             -0.0000    Y=             -0.0000    Z=             -0.5487  Tot=              0.5487
 Quadrupole moment (field-independent basis, Debye-Ang):
   XX=            -36.0109   YY=            -36.0109   ZZ=            -37.0089
   XY=             -0.0000   XZ=              0.0000   YZ=              0.0000

  Exact polarizability:  67.149   0.000  67.149   0.000   0.000  59.475
 Approx polarizability:  86.628  -0.000  86.628   0.000  -0.000  85.184

                      1                      2                      3
                     A2                      E                      E
 Frequencies --    144.2683               162.6487               162.6487
 Red. masses --      1.0114                 1.0443                 1.0443
 Frc consts  --      0.0124                 0.0163                 0.0163
 IR Inten    --      0.0000                 0.0007                 0.0007

                      4                      5                      6
                      E                      E                     A1
 Frequencies --    205.1669               205.1688               244.9440
 Red. masses --      2.2707                 2.2707                 2.3857
 Frc consts  --      0.0563                 0.0563                 0.0843
 IR Inten    --      1.0739                 1.0739                 2.3512

                      7                      8                      9
                     A1                      E                      E
 Frequencies --    611.9445               625.6208               625.6277
 Red. masses --      3.5149                 1.0646                 1.0646
 Frc consts  --      0.7755                 0.2455                 0.2455
 IR Inten    --      2.3337                10.9892                10.9880

                     10                     11                     12
                     A2                      E                      E
 Frequencies --    687.4537               703.4434               703.4476
 Red. masses --      1.1669                 3.1757                 3.1756
 Frc consts  --      0.3249                 0.9259                 0.9259
 IR Inten    --      0.0000                17.0751                17.0737

                     13                     14                     15
                      E                      E                     A1
 Frequencies --    853.8182               853.8197               875.8003
 Red. masses --      1.3916                 1.3916                 1.5364
 Frc consts  --      0.5977                 0.5977                 0.6943
 IR Inten    --     17.9007                17.9006                56.7149

                     16                     17                     18
                      E                      E                      E
 Frequencies --    922.0359               922.0366              1290.2733
 Red. masses --      1.3044                 1.3044                 1.2478
 Frc consts  --      0.6534                 0.6534                 1.2240
 IR Inten    --    164.8286               164.8288                31.9530

                     19                     20                     21
                      E                     A1                     A2
 Frequencies --   1290.2734              1299.3167              1454.5740
 Red. masses --      1.2478                 1.2211                 1.0547
 Frc consts  --      1.2240                 1.2145                 1.3148
 IR Inten    --     31.9504                 5.6120                 0.0000

                     22                     23                     24
                      E                      E                      E
 Frequencies --   1458.2543              1458.2543              1467.0562
 Red. masses --      1.0523                 1.0523                 1.0485
 Frc consts  --      1.3184                 1.3184                 1.3295
 IR Inten    --      0.0937                 0.0936                 4.0292

                     25                     26                     27
                      E                     A1                     A1
 Frequencies --   1467.0562              1474.1850              2179.0871
 Red. masses --      1.0485                 1.0462                 1.0402
 Frc consts  --      1.3295                 1.3396                 2.9102
 IR Inten    --      4.0296                11.7322               167.7667

                     28                     29                     30
                      E                      E                     A1
 Frequencies --   3024.7513              3024.7513              3025.7389
 Red. masses --      1.0350                 1.0350                 1.0348
 Frc consts  --      5.5793                 5.5793                 5.5817
 IR Inten    --      9.1855                 9.1857                 3.5458

                     31                     32                     33
                      E                      E                     A1
 Frequencies --   3091.6925              3091.6925              3093.7806
 Red. masses --      1.1000                 1.1000                 1.0993
 Frc consts  --      6.1947                 6.1947                 6.1992
 IR Inten    --      1.1539                 1.1541                34.6998

                     34                     35                     36
                     A2                      E                      E
 Frequencies --   3096.6694              3097.5396              3097.5396
 Red. masses --      1.1002                 1.0999                 1.0999
 Frc consts  --      6.2160                 6.2176                 6.2176
 IR Inten    --      0.0000                20.8809                20.8814

 - Thermochemistry -
 -------------------
 Temperature   298.150 Kelvin.  Pressure   1.00000 Atm.
 Atom     1 has atomic number 14 and mass  27.97693

 Molecular mass:    74.05518 amu.
 Principal axes and moments of inertia in atomic units:
                           1         2         3
     Eigenvalues --   341.20816 341.20816 579.18433
           X           -0.33174   0.94337   0.00000
           Y            0.94337   0.33174   0.00000
           Z           -0.00000  -0.00000   1.00000
 This molecule is an oblate symmetric top.
 Rotational symmetry number  3.
 Rotational temperatures (Kelvin)      0.25384     0.25384     0.14954
 Rotational constants (GHZ):           5.28927     5.28927     3.11600
 Zero-point vibrational energy     310983.5 (Joules/Mol)
                                   74.32684 (Kcal/Mol)
 Warning -- explicit consideration of   7 degrees of freedom as
           vibrations may cause significant error
 Vibrational temperatures:    207.57   234.02   234.02   295.19   295.19
          (Kelvin)            352.42   880.45   900.13   900.14   989.09
                             1012.10  1012.10  1228.45  1228.46  1260.08
                             1326.60  1326.61  1856.42  1856.42  1869.43
                             2092.81  2098.10  2098.10  2110.77  2110.77
                             2121.02  3135.22  4351.94  4351.94  4353.36
                             4448.26  4448.26  4451.26  4455.42  4456.67
                             4456.67

 Zero-point correction=                           0.118447 (Hartree/Particle)
 Thermal correction to Energy=                    0.125918
 Thermal correction to Enthalpy=                  0.126862
 Thermal correction to Gibbs Free Energy=         0.089251
 Sum of electronic and zero-point Energies=           -409.840495
 Sum of electronic and thermal Energies=              -409.833024
 Sum of electronic and thermal Enthalpies=            -409.832080
 Sum of electronic and thermal Free Energies=         -409.869691

                     E (Thermal)             CV                S
                      KCal/Mol        Cal/Mol-Kelvin    Cal/Mol-Kelvin
 Total                   79.015             26.124             79.160
 Electronic               0.000              0.000              0.000
 Translational            0.889              2.981             38.823
 Rotational               0.889              2.981             23.531
 Vibrational             77.237             20.163             16.806
 Vibration     1          0.616              1.909              2.746
 Vibration     2          0.623              1.888              2.519
 Vibration     3          0.623              1.888              2.519
 Vibration     4          0.640              1.833              2.086
 Vibration     5          0.640              1.833              2.086
 Vibration     6          0.660              1.771              1.767
 Vibration     7          0.971              1.007              0.430

                           ! Non-Optimized Parameters !
 Normal termination of Gaussian 16 at Thu Jun 16 08:28:43 2022.
