 Gaussian 16, Revision B.01,
 Gaussian 16:  ES64L-G16RevB.01 20-Dec-2017

 --------------------
 # b3lyp/gen opt freq
 --------------------

 ------------------------------
 silicon dioxide, B3LYP/pcseg-2
 ------------------------------
 Symbolic Z-matrix:
 Charge =  0 Multiplicity = 1

 SCF Done:  E(RB3LYP) =  -440.049350650     A.U. after   11 cycles
 SCF Done:  E(RB3LYP) =  -440.049468228     A.U. after    8 cycles
 SCF Done:  E(RB3LYP) =  -440.049471877     A.U. after    7 cycles
 Optimization completed.
    -- Stationary point found.
 Normal termination of Gaussian 16 at Fri Jun 17 12:37:02 2022.

 ------------------------------------------------------------------
 #N Geom=AllCheck Guess=TCheck SCRF=Check GenChk RB3LYP/ChkBas Freq
 ------------------------------------------------------------------

 Structure from the checkpoint file:  "/wrk/irikura/Gau-15056.chk"
 ------------------------------
 silicon dioxide, B3LYP/pcseg-2
 ------------------------------
 Charge =  0 Multiplicity = 1

                         Standard orientation:
 ---------------------------------------------------------------------
 Center     Atomic      Atomic             Coordinates (Angstroms)
 Number     Number       Type             X           Y           Z
 ---------------------------------------------------------------------
      1         14           0        0.000000    0.000000    0.000000
      2          8           0        0.000000    0.000000    1.508840
      3          8           0        0.000000    0.000000   -1.508840
 ---------------------------------------------------------------------

 SCF Done:  E(RB3LYP) =  -440.049471877     A.U. after    1 cycles

 The electronic state is 1-SGG.
 Alpha  occ. eigenvalues --  -66.17199 -19.15643 -19.15643  -5.35843  -3.71863
 Alpha  occ. eigenvalues --   -3.71863  -3.70986  -1.00225  -0.97707  -0.47648
 Alpha  occ. eigenvalues --   -0.40544  -0.39568  -0.39568  -0.35728  -0.35728
 Alpha virt. eigenvalues --   -0.14134  -0.03843  -0.03843   0.08238   0.13049
 Alpha virt. eigenvalues --    0.13049   0.21918   0.34384   0.34678   0.34678
 Alpha virt. eigenvalues --    0.35021   0.41034   0.41034   0.46160   0.46160

 Mulliken charges:
               1
     1  Si   1.205241
     2  O   -0.602620
     3  O   -0.602620
 Sum of Mulliken charges =  -0.00000

 Dipole moment (field-independent basis, Debye):
    X=             -0.0000    Y=             -0.0000    Z=              0.0000  Tot=              0.0000
 Quadrupole moment (field-independent basis, Debye-Ang):
   XX=            -20.0759   YY=            -20.0759   ZZ=            -32.9755
   XY=              0.0000   XZ=              0.0000   YZ=              0.0000

  Exact polarizability:  19.124   0.000  19.124   0.000   0.000  38.620
 Approx polarizability:  25.176  -0.000  25.176  -0.000  -0.000  73.779

                      1                      2                      3
                     PIU                    PIU                    SGG
 Frequencies --    285.6732               285.6732               999.9743
 Red. masses --     20.7315                20.7315                15.9949
 Frc consts  --      0.9968                 0.9968                 9.4234
 IR Inten    --     87.7596                87.7596                 0.0000

                      4
                     SGU
 Frequencies --   1448.5055
 Red. masses --     20.7315
 Frc consts  --     25.6283
 IR Inten    --    101.7882

 - Thermochemistry -
 -------------------
 Temperature   298.150 Kelvin.  Pressure   1.00000 Atm.
 Atom     1 has atomic number 14 and mass  27.97693

 Molecular mass:    59.96676 amu.
 Principal axes and moments of inertia in atomic units:
                           1         2         3
     Eigenvalues --     0.00000 260.07340 260.07340
           X           -0.00000   1.00000  -0.00000
           Y            0.00000   0.00000   1.00000
           Z            1.00000   0.00000  -0.00000
 This molecule is a prolate symmetric top.
 Rotational symmetry number  2.
 Rotational temperature (Kelvin)      0.33304
 Rotational constant (GHZ):           6.939353
 Zero-point vibrational energy      18062.6 (Joules/Mol)
                                    4.31706 (Kcal/Mol)
 Warning -- explicit consideration of   2 degrees of freedom as
           vibrations may cause significant error
 Vibrational temperatures:    411.02   411.02  1438.74  2084.08
          (Kelvin)

 Zero-point correction=                           0.006880 (Hartree/Particle)
 Thermal correction to Energy=                    0.010160
 Thermal correction to Enthalpy=                  0.011104
 Thermal correction to Gibbs Free Energy=        -0.015227
 Sum of electronic and zero-point Energies=           -440.042592
 Sum of electronic and thermal Energies=              -440.039312
 Sum of electronic and thermal Enthalpies=            -440.038368
 Sum of electronic and thermal Free Energies=         -440.064699

                     E (Thermal)             CV                S
                      KCal/Mol        Cal/Mol-Kelvin    Cal/Mol-Kelvin
 Total                    6.375              8.835             55.418
 Electronic               0.000              0.000              0.000
 Translational            0.889              2.981             38.194
 Rotational               0.592              1.987             14.117
 Vibrational              4.894              3.867              3.107
 Vibration     1          0.683              1.700              1.499
 Vibration     2          0.683              1.700              1.499

 Optimization completed.
    -- Stationary point found.
 Normal termination of Gaussian 16 at Fri Jun 17 12:37:09 2022.
