 Gaussian 16, Revision B.01,
 Gaussian 16:  ES64L-G16RevB.01 20-Dec-2017

 --------------------
 # b3lyp/gen opt freq
 --------------------

 -------------------------------
 silicon monoxide, B3LYP/pcseg-2
 -------------------------------
 Symbolic Z-matrix:
 Charge =  0 Multiplicity = 1

 SCF Done:  E(RB3LYP) =  -364.785744505     A.U. after   13 cycles
 SCF Done:  E(RB3LYP) =  -364.792856634     A.U. after   10 cycles
 SCF Done:  E(RB3LYP) =  -364.792930684     A.U. after    7 cycles
 Optimization completed.
    -- Stationary point found.
 Normal termination of Gaussian 16 at Thu Jun 16 12:15:41 2022.

 ------------------------------------------------------------------
 #N Geom=AllCheck Guess=TCheck SCRF=Check GenChk RB3LYP/ChkBas Freq
 ------------------------------------------------------------------

 Structure from the checkpoint file:  "/wrk/irikura/Gau-30692.chk"
 -------------------------------
 silicon monoxide, B3LYP/pcseg-2
 -------------------------------
 Charge =  0 Multiplicity = 1

                         Standard orientation:
 ---------------------------------------------------------------------
 Center     Atomic      Atomic             Coordinates (Angstroms)
 Number     Number       Type             X           Y           Z
 ---------------------------------------------------------------------
      1         14           0        0.000000    0.000000    0.549688
      2          8           0        0.000000    0.000000   -0.961954
 ---------------------------------------------------------------------

 SCF Done:  E(RB3LYP) =  -364.792930684     A.U. after    1 cycles

 The electronic state is 1-SG.
 Alpha  occ. eigenvalues --  -66.12382 -19.11001  -5.30647  -3.66553  -3.66553
 Alpha  occ. eigenvalues --   -3.65849  -0.94321  -0.44037  -0.33726  -0.33726
 Alpha  occ. eigenvalues --   -0.31488
 Alpha virt. eigenvalues --   -0.07984  -0.07984   0.01817   0.14529   0.14529
 Alpha virt. eigenvalues --    0.15591   0.28394   0.39478   0.39478   0.39791
 Alpha virt. eigenvalues --    0.45037   0.45037   0.56051   0.56051   0.62025

 Mulliken charges:
               1
     1  Si   0.606884
     2  O   -0.606884
 Sum of Mulliken charges =  -0.00000

 Dipole moment (field-independent basis, Debye):
    X=              0.0000    Y=              0.0000    Z=              3.1954  Tot=              3.1954
 Quadrupole moment (field-independent basis, Debye-Ang):
   XX=            -16.2566   YY=            -16.2566   ZZ=            -20.6655
   XY=              0.0000   XZ=              0.0000   YZ=              0.0000

  Exact polarizability:  22.073   0.000  22.073   0.000   0.000  31.955
 Approx polarizability:  32.150  -0.000  32.150  -0.000  -0.000  55.149

                      1
                     SG
 Frequencies --   1257.1876
 Red. masses --     18.9466
 Frc consts  --     17.6434
 IR Inten    --     53.8474

 - Thermochemistry -
 -------------------
 Temperature   298.150 Kelvin.  Pressure   1.00000 Atm.
 Atom     1 has atomic number 14 and mass  27.97693

 Molecular mass:    43.97184 amu.
 Principal axes and moments of inertia in atomic units:
                           1         2         3
     Eigenvalues --     0.00000  83.04295  83.04295
           X            0.00000  -0.00000   1.00000
           Y            0.00000   1.00000   0.00000
           Z            1.00000   0.00000   0.00000
 This molecule is a prolate symmetric top.
 Rotational symmetry number  1.
 Rotational temperature (Kelvin)      1.04300
 Rotational constant (GHZ):          21.732624
 Zero-point vibrational energy       7519.7 (Joules/Mol)
                                    1.79724 (Kcal/Mol)
 Vibrational temperatures:   1808.81
          (Kelvin)

 Zero-point correction=                           0.002864 (Hartree/Particle)
 Thermal correction to Energy=                    0.005238
 Thermal correction to Enthalpy=                  0.006182
 Thermal correction to Gibbs Free Energy=        -0.017825
 Sum of electronic and zero-point Energies=           -364.790067
 Sum of electronic and thermal Energies=              -364.787693
 Sum of electronic and thermal Enthalpies=            -364.786749
 Sum of electronic and thermal Free Energies=         -364.810756

                     E (Thermal)             CV                S
                      KCal/Mol        Cal/Mol-Kelvin    Cal/Mol-Kelvin
 Total                    3.287              5.138             50.527
 Electronic               0.000              0.000              0.000
 Translational            0.889              2.981             37.269
 Rotational               0.592              1.987             13.226
 Vibrational              1.806              0.170              0.033

 Optimization completed.
    -- Stationary point found.
 Normal termination of Gaussian 16 at Thu Jun 16 12:15:46 2022.
