 Gaussian 16, Revision B.01,
 Gaussian 16:  ES64L-G16RevB.01 20-Dec-2017

 --------------------
 # b3lyp/gen opt freq
 --------------------

 ------------------------------
 sulfur monoxide, B3LYP/pcseg-2
 ------------------------------
 Symbolic Z-matrix:
 Charge =  0 Multiplicity = 3

 SCF Done:  E(UB3LYP) =  -473.434943546     A.U. after   14 cycles
 SCF Done:  E(UB3LYP) =  -473.434991237     A.U. after    9 cycles
 SCF Done:  E(UB3LYP) =  -473.434996818     A.U. after    8 cycles
 Optimization completed.
    -- Stationary point found.
 Normal termination of Gaussian 16 at Tue Sep 12 11:26:12 2023.

 ------------------------------------------------------------------
 #N Geom=AllCheck Guess=TCheck SCRF=Check GenChk UB3LYP/ChkBas Freq
 ------------------------------------------------------------------

 Structure from the checkpoint file:  "/wrk/irikura/Gau-337420.chk"
 ------------------------------
 sulfur monoxide, B3LYP/pcseg-2
 ------------------------------
 Charge =  0 Multiplicity = 3

                         Standard orientation:
 ---------------------------------------------------------------------
 Center     Atomic      Atomic             Coordinates (Angstroms)
 Number     Number       Type             X           Y           Z
 ---------------------------------------------------------------------
      1         16           0        0.000000    0.000000    0.497484
      2          8           0        0.000000    0.000000   -0.994968
 ---------------------------------------------------------------------

 SCF Done:  E(UB3LYP) =  -473.434996818     A.U. after    1 cycles

 The electronic state is 3-SG.
 Alpha  occ. eigenvalues --  -88.93773 -19.20341  -8.02387  -5.98568  -5.98568
 Alpha  occ. eigenvalues --   -5.98372  -1.09401  -0.69131  -0.46269  -0.46269
 Alpha  occ. eigenvalues --   -0.46121  -0.27033  -0.27033
 Alpha virt. eigenvalues --   -0.00787   0.21351   0.21351   0.25645   0.31204
 Alpha virt. eigenvalues --    0.35362   0.35362   0.38197   0.44542   0.44542
 Alpha virt. eigenvalues --    0.53410   0.53410   0.61629   0.88756   1.37068

  Beta  occ. eigenvalues --  -88.93030 -19.18005  -8.01659  -5.97999  -5.97106
  Beta  occ. eigenvalues --   -5.97106  -1.05211  -0.62729  -0.43052  -0.39499
  Beta  occ. eigenvalues --   -0.39499
  Beta virt. eigenvalues --   -0.13452  -0.13452   0.01103   0.23168   0.23168
  Beta virt. eigenvalues --    0.26668   0.32206   0.37993   0.37993   0.39359
  Beta virt. eigenvalues --    0.51056   0.51056   0.56440   0.56440   0.63504

 Mulliken charges and spin densities:
               1          2
     1  S    0.356871   1.307643
     2  O   -0.356871   0.692357
 Sum of Mulliken charges =  -0.00000   2.00000

 Dipole moment (field-independent basis, Debye):
    X=              0.0000    Y=              0.0000    Z=              1.7362  Tot=              1.7362
 Quadrupole moment (field-independent basis, Debye-Ang):
   XX=            -17.6326   YY=            -17.6326   ZZ=            -18.5199
   XY=              0.0000   XZ=              0.0000   YZ=              0.0000

  Exact polarizability:  11.279  -0.000  11.279  -0.000   0.000  26.563
 Approx polarizability:  15.906  -0.000  15.906  -0.000  -0.000  49.486

                      1
                     SG
 Frequencies --   1148.0140
 Red. masses --     19.1932
 Frc consts  --     14.9036
 IR Inten    --     14.2082

 - Thermochemistry -
 -------------------
 Temperature   298.150 Kelvin.  Pressure   1.00000 Atm.
 Atom     1 has atomic number 16 and mass  31.97207

 Molecular mass:    47.96699 amu.
 Principal axes and moments of inertia in atomic units:
                           1         2         3
     Eigenvalues --     0.00000  84.80260  84.80260
           X            0.00000  -0.00000   1.00000
           Y            0.00000   1.00000   0.00000
           Z            1.00000   0.00000   0.00000
 This molecule is a prolate symmetric top.
 Rotational symmetry number  1.
 Rotational temperature (Kelvin)      1.02136
 Rotational constant (GHZ):          21.281672
 Zero-point vibrational energy       6866.6 (Joules/Mol)
                                    1.64117 (Kcal/Mol)
 Vibrational temperatures:   1651.74
          (Kelvin)

 Zero-point correction=                           0.002615 (Hartree/Particle)
 Thermal correction to Energy=                    0.004996
 Thermal correction to Enthalpy=                  0.005941
 Thermal correction to Gibbs Free Energy=        -0.019256
 Sum of electronic and zero-point Energies=           -473.432381
 Sum of electronic and thermal Energies=              -473.430000
 Sum of electronic and thermal Enthalpies=            -473.429056
 Sum of electronic and thermal Free Energies=         -473.454252

                     E (Thermal)             CV                S
                      KCal/Mol        Cal/Mol-Kelvin    Cal/Mol-Kelvin
 Total                    3.135              5.209             53.030
 Electronic               0.000              0.000              2.183
 Translational            0.889              2.981             37.528
 Rotational               0.592              1.987             13.267
 Vibrational              1.654              0.241              0.051

 Optimization completed.
    -- Stationary point found.
 Normal termination of Gaussian 16 at Tue Sep 12 11:26:26 2023.
