 Gaussian 16, Revision B.01,
 Gaussian 16:  ES64L-G16RevB.01 20-Dec-2017

 --------------------
 # b3lyp/gen opt freq
 --------------------

 ------------------
 SO2, B3LYP/pcseg-2
 ------------------
 Symbolic Z-matrix:
 Charge =  0 Multiplicity = 1

 SCF Done:  E(RB3LYP) =  -548.629835086     A.U. after   12 cycles
 SCF Done:  E(RB3LYP) =  -548.685864741     A.U. after   11 cycles
 SCF Done:  E(RB3LYP) =  -548.722645501     A.U. after   11 cycles
 SCF Done:  E(RB3LYP) =  -548.723309021     A.U. after   10 cycles
 SCF Done:  E(RB3LYP) =  -548.723314318     A.U. after    7 cycles
 SCF Done:  E(RB3LYP) =  -548.723315995     A.U. after    6 cycles
 Optimization completed.
    -- Stationary point found.
 Normal termination of Gaussian 16 at Thu Feb 24 15:19:26 2022.

 ------------------------------------------------------------------
 #N Geom=AllCheck Guess=TCheck SCRF=Check GenChk RB3LYP/ChkBas Freq
 ------------------------------------------------------------------

 Structure from the checkpoint file:  "/wrk/irikura/Gau-20174.chk"
 ------------------
 SO2, B3LYP/pcseg-2
 ------------------
 Charge =  0 Multiplicity = 1

                         Standard orientation:
 ---------------------------------------------------------------------
 Center     Atomic      Atomic             Coordinates (Angstroms)
 Number     Number       Type             X           Y           Z
 ---------------------------------------------------------------------
      1         16           0       -0.000000    0.000000    0.368672
      2          8           0        0.000000    1.238107   -0.368672
      3          8           0       -0.000000   -1.238107   -0.368672
 ---------------------------------------------------------------------

 SCF Done:  E(RB3LYP) =  -548.723315995     A.U. after    1 cycles

 The electronic state is 1-A1.
 Alpha  occ. eigenvalues --  -89.02754 -19.18682 -19.18681  -8.10019  -6.06359
 Alpha  occ. eigenvalues --   -6.06125  -6.05716  -1.15327  -1.05978  -0.64522
 Alpha  occ. eigenvalues --   -0.50296  -0.50104  -0.50008  -0.38487  -0.37014
 Alpha  occ. eigenvalues --   -0.34383
 Alpha virt. eigenvalues --   -0.13887   0.03516   0.04683   0.19170   0.20223
 Alpha virt. eigenvalues --    0.27524   0.30695   0.32992   0.33120   0.35411
 Alpha virt. eigenvalues --    0.35846   0.37617   0.45388   0.48898   0.50270

 Mulliken charges:
               1
     1  S    0.821869
     2  O   -0.410934
     3  O   -0.410934
 Sum of Mulliken charges =  -0.00000

 Dipole moment (field-independent basis, Debye):
    X=              0.0000    Y=              0.0000    Z=              1.8999  Tot=              1.8999
 Quadrupole moment (field-independent basis, Debye-Ang):
   XX=            -20.7124   YY=            -27.5480   ZZ=            -22.7775
   XY=             -0.0000   XZ=             -0.0000   YZ=             -0.0000

  Exact polarizability:  14.025   0.000  31.811  -0.000  -0.000  18.700
 Approx polarizability:  22.040   0.000  64.596   0.000   0.000  28.064

                      1                      2                      3
                     A1                     A1                     B2
 Frequencies --    526.0554              1171.5841              1360.0983
 Red. masses --     18.5518                18.0145                20.3057
 Frc consts  --      3.0248                14.5686                22.1314
 IR Inten    --     34.1733                34.5518               224.4689

 - Thermochemistry -
 -------------------
 Temperature   298.150 Kelvin.  Pressure   1.00000 Atm.
 Atom     1 has atomic number 16 and mass  31.97207

 Molecular mass:    63.96190 amu.
 Principal axes and moments of inertia in atomic units:
                           1         2         3
     Eigenvalues --    31.04551 175.11617 206.16168
           X            0.00000   0.00000   1.00000
           Y            1.00000  -0.00000  -0.00000
           Z            0.00000   1.00000  -0.00000
 This molecule is an asymmetric top.
 Rotational symmetry number  2.
 Rotational temperatures (Kelvin)      2.78990     0.49461     0.42013
 Rotational constants (GHZ):          58.13211    10.30597     8.75401
 Zero-point vibrational energy      18289.3 (Joules/Mol)
                                    4.37126 (Kcal/Mol)
 Warning -- explicit consideration of   1 degrees of freedom as
           vibrations may cause significant error
 Vibrational temperatures:    756.88  1685.65  1956.88
          (Kelvin)

 Zero-point correction=                           0.006966 (Hartree/Particle)
 Thermal correction to Energy=                    0.010032
 Thermal correction to Enthalpy=                  0.010976
 Thermal correction to Gibbs Free Energy=        -0.017207
 Sum of electronic and zero-point Energies=           -548.716350
 Sum of electronic and thermal Energies=              -548.713284
 Sum of electronic and thermal Enthalpies=            -548.712340
 Sum of electronic and thermal Free Energies=         -548.740523

                     E (Thermal)             CV                S
                      KCal/Mol        Cal/Mol-Kelvin    Cal/Mol-Kelvin
 Total                    6.295              7.499             59.316
 Electronic               0.000              0.000              0.000
 Translational            0.889              2.981             38.386
 Rotational               0.889              2.981             20.266
 Vibrational              4.518              1.538              0.664
 Vibration     1          0.881              1.192              0.596

 Optimization completed.
    -- Stationary point found.
 Normal termination of Gaussian 16 at Thu Feb 24 15:19:36 2022.
