 Gaussian 16, Revision B.01,
 Gaussian 16:  ES64L-G16RevB.01 20-Dec-2017

 -------------------------------
 # b3lyp/gen opt freq symm=loose
 -------------------------------

 ------------------------------
 sulfur trioxide, B3LYP/pcseg-2
 ------------------------------
 Symbolic Z-matrix:
 Charge =  0 Multiplicity = 1

 SCF Done:  E(RB3LYP) =  -623.945319283     A.U. after   10 cycles
 SCF Done:  E(RB3LYP) =  -623.946136333     A.U. after    9 cycles
 SCF Done:  E(RB3LYP) =  -623.946246764     A.U. after    7 cycles
 Optimization completed.
    -- Stationary point found.
 Normal termination of Gaussian 16 at Fri Sep  8 15:08:09 2023.

 ------------------------------------------------------------------
 #N Geom=AllCheck Guess=TCheck SCRF=Check GenChk RB3LYP/ChkBas Freq
 ------------------------------------------------------------------

 Structure from the checkpoint file:  "/wrk/irikura/Gau-6925.chk"
 ------------------------------
 sulfur trioxide, B3LYP/pcseg-2
 ------------------------------
 Charge =  0 Multiplicity = 1

                         Standard orientation:
 ---------------------------------------------------------------------
 Center     Atomic      Atomic             Coordinates (Angstroms)
 Number     Number       Type             X           Y           Z
 ---------------------------------------------------------------------
      1         16           0        0.000000    0.000000    0.000000
      2          8           0        0.000000    1.429277    0.000000
      3          8           0       -1.237790   -0.714639    0.000000
      4          8           0        1.237790   -0.714639    0.000000
 ---------------------------------------------------------------------

 SCF Done:  E(RB3LYP) =  -623.946246764     A.U. after    1 cycles

 Unable to determine electronic state:  an orbital has unidentified symmetry.
 Alpha  occ. eigenvalues --  -89.11424 -19.21348 -19.21348 -19.21347  -8.17858
 Alpha  occ. eigenvalues --   -6.14409  -6.13873  -6.13873  -1.22675  -1.09706
 Alpha  occ. eigenvalues --   -1.09706  -0.64254  -0.56812  -0.54381  -0.54381
 Alpha  occ. eigenvalues --   -0.43941  -0.43941  -0.41463  -0.41463  -0.36246
 Alpha virt. eigenvalues --   -0.10582  -0.09615   0.12117   0.12117   0.17669
 Alpha virt. eigenvalues --    0.24410   0.24410   0.29303   0.30996   0.30996
 Alpha virt. eigenvalues --    0.31019   0.33620   0.33620   0.43363   0.43363

 Mulliken charges:
               1
     1  S    1.253894
     2  O   -0.417965
     3  O   -0.417965
     4  O   -0.417965
 Sum of Mulliken charges =  -0.00000

 Dipole moment (field-independent basis, Debye):
    X=             -0.0000    Y=             -0.0000    Z=             -0.0000  Tot=              0.0000
 Quadrupole moment (field-independent basis, Debye-Ang):
   XX=            -31.7619   YY=            -31.7619   ZZ=            -25.1519
   XY=             -0.0000   XZ=             -0.0000   YZ=              0.0000

  Exact polarizability:  29.874   0.000  29.873   0.000   0.000  15.769
 Approx polarizability:  52.654   0.000  52.654  -0.000  -0.000  23.899

                      1                      2                      3
                     A2"                    ?A                     ?A
 Frequencies --    481.6034               521.9080               521.9080
 Red. masses --     22.8466                17.3073                17.3073
 Frc consts  --      3.1221                 2.7776                 2.7776
 IR Inten    --     37.4011                31.2542                31.2535

                      4                      5                      6
                     ?B                     ?A                     ?A
 Frequencies --   1063.6988              1387.7412              1387.7429
 Red. masses --     15.9949                20.6139                20.6139
 Frc consts  --     10.6628                23.3898                23.3899
 IR Inten    --      0.0000               214.8599               214.8673

 - Thermochemistry -
 -------------------
 Temperature   298.150 Kelvin.  Pressure   1.00000 Atm.
 Atom     1 has atomic number 16 and mass  31.97207

 Molecular mass:    79.95682 amu.
 Principal axes and moments of inertia in atomic units:
                           1         2         3
     Eigenvalues --   175.02654 175.02654 350.05309
           X            0.90851  -0.41786   0.00000
           Y            0.41786   0.90851   0.00000
           Z            0.00000   0.00000   1.00000
 This molecule is an oblate symmetric top.
 Rotational symmetry number  6.
 Rotational temperatures (Kelvin)      0.49486     0.49486     0.24743
 Rotational constants (GHZ):          10.31124    10.31124     5.15562
 Zero-point vibrational energy      32087.4 (Joules/Mol)
                                    7.66908 (Kcal/Mol)
 Warning -- explicit consideration of   3 degrees of freedom as
           vibrations may cause significant error
 Vibrational temperatures:    692.92   750.91   750.91  1530.43  1996.65
          (Kelvin)           1996.65

 Zero-point correction=                           0.012221 (Hartree/Particle)
 Thermal correction to Energy=                    0.015753
 Thermal correction to Enthalpy=                  0.016697
 Thermal correction to Gibbs Free Energy=        -0.012478
 Sum of electronic and zero-point Energies=           -623.934025
 Sum of electronic and thermal Energies=              -623.930493
 Sum of electronic and thermal Enthalpies=            -623.929549
 Sum of electronic and thermal Free Energies=         -623.958725

                     E (Thermal)             CV                S
                      KCal/Mol        Cal/Mol-Kelvin    Cal/Mol-Kelvin
 Total                    9.885             10.189             61.405
 Electronic               0.000              0.000              0.000
 Translational            0.889              2.981             39.051
 Rotational               0.889              2.981             20.327
 Vibrational              8.108              4.227              2.027
 Vibration     1          0.838              1.291              0.706
 Vibration     2          0.877              1.201              0.606
 Vibration     3          0.877              1.201              0.606

 Optimization completed.
    -- Stationary point found.
 Normal termination of Gaussian 16 at Fri Sep  8 15:08:22 2023.
