 Gaussian 16, Revision B.01,

 ---------------------------------------
 # b3lyp/gen opt freq CPHF(Grid=OneStep)
 ---------------------------------------

 ----------------------
 styrene, B3LYP/pcseg-2
 ----------------------
 Symbolic Z-matrix:
 Charge =  0 Multiplicity = 1

 SCF Done:  E(RB3LYP) =  -309.768711938     A.U. after   13 cycles
 Optimization completed.
    -- Stationary point found.
 Normal termination of Gaussian 16 at Thu Sep 28 13:12:30 2023.

 ------------------------------------------------------------------
 #N Geom=AllCheck Guess=TCheck SCRF=Check GenChk RB3LYP/ChkBas Freq
 ------------------------------------------------------------------

 Structure from the checkpoint file:  "styrene.chk"
 ----------------------
 styrene, B3LYP/pcseg-2
 ----------------------
 Charge =  0 Multiplicity = 1

 SCF Done:  E(RB3LYP) =  -309.768711938     A.U. after    1 cycles

  Exact polarizability: 106.706 -19.609 128.985   0.000   0.000  51.549
 Approx polarizability: 180.678 -29.011 196.515  -0.000  -0.000  80.149

                      1                      2                      3
                     A"                     A"                     A'
 Frequencies --     39.4732               205.3379               235.9588
 Red. masses --      2.3814                 2.3666                 3.1207
 Frc consts  --      0.0022                 0.0588                 0.1024
 IR Inten    --      0.0030                 2.0976                 0.4561

                      4                      5                      6
                     A"                     A"                     A'
 Frequencies --    413.4007               448.3463               449.9310
 Red. masses --      2.8048                 2.3453                 4.4274
 Frc consts  --      0.2824                 0.2778                 0.5281
 IR Inten    --      0.2956                10.1388                 0.1129

                      7                      8                      9
                     A'                     A'                     A"
 Frequencies --    563.1832               636.7939               659.1546
 Red. masses --      3.2045                 6.4181                 1.9697
 Frc consts  --      0.5988                 1.5334                 0.5042
 IR Inten    --      5.3054                 0.0374                 0.0042

                     10                     11                     12
                     A"                     A'                     A"
 Frequencies --    713.1857               789.7363               803.0684
 Red. masses --      1.3898                 3.9249                 2.0253
 Frc consts  --      0.4165                 1.4423                 0.7696
 IR Inten    --     45.0646                 0.1071                34.5661

                     13                     14                     15
                     A"                     A"                     A"
 Frequencies --    856.2699               938.5708               941.7854
 Red. masses --      1.2568                 1.4686                 1.3558
 Frc consts  --      0.5429                 0.7622                 0.7085
 IR Inten    --      0.3951                 1.5572                46.0977

                     16                     17                     18
                     A"                     A"                     A'
 Frequencies --    994.4069              1011.2374              1019.0808
 Red. masses --      1.3769                 1.2977                 5.4987
 Frc consts  --      0.8022                 0.7819                 3.3646
 IR Inten    --      0.0022                 0.4863                 0.3192

                     19                     20                     21
                     A"                     A'                     A'
 Frequencies --   1034.5883              1043.9879              1058.1240
 Red. masses --      1.1445                 2.0032                 1.7066
 Frc consts  --      0.7218                 1.2864                 1.1258
 IR Inten    --     14.5914                 5.8803                 0.1948

                     22                     23                     24
                     A'                     A'                     A'
 Frequencies --   1113.0300              1184.2435              1206.4410
 Red. masses --      1.5862                 1.1195                 1.1654
 Frc consts  --      1.1578                 0.9250                 0.9994
 IR Inten    --      4.8771                 0.2137                 0.1135

                     25                     26                     27
                     A'                     A'                     A'
 Frequencies --   1227.6098              1320.1394              1347.3523
 Red. masses --      2.4909                 2.7530                 1.8577
 Frc consts  --      2.2117                 2.8268                 1.9869
 IR Inten    --      1.8553                 2.6174                 0.6893

                     28                     29                     30
                     A'                     A'                     A'
 Frequencies --   1367.7870              1457.2354              1487.8550
 Red. masses --      1.3271                 1.3568                 1.9029
 Frc consts  --      1.4628                 1.6975                 2.4819
 IR Inten    --      2.0787                 5.5784                 3.6905

                     31                     32                     33
                     A'                     A'                     A'
 Frequencies --   1532.3153              1616.4396              1641.7051
 Red. masses --      2.1786                 4.9250                 5.4058
 Frc consts  --      3.0139                 7.5818                 8.5842
 IR Inten    --      9.5220                 3.1058                 1.3082

                     34                     35                     36
                     A'                     A'                     A'
 Frequencies --   1688.3011              3135.0349              3149.9828
 Red. masses --      4.2543                 1.0842                 1.0638
 Frc consts  --      7.1446                 6.2785                 6.2191
 IR Inten    --     16.8631                12.4604                 2.7106

                     37                     38                     39
                     A'                     A'                     A'
 Frequencies --   3162.9385              3169.7491              3179.5324
 Red. masses --      1.0862                 1.0865                 1.0903
 Frc consts  --      6.4024                 6.4320                 6.4939
 IR Inten    --      7.1432                 0.1170                13.7265

                     40                     41                     42
                     A'                     A'                     A'
 Frequencies --   3188.3637              3196.0901              3228.9911
 Red. masses --      1.0929                 1.0973                 1.1152
 Frc consts  --      6.5458                 6.6038                 6.8505
 IR Inten    --     25.4557                10.1976                11.2692

 - Thermochemistry -
 -------------------
 Temperature   298.150 Kelvin.  Pressure   1.00000 Atm.
 Atom     1 has atomic number  6 and mass  12.00000

 Molecular mass:   104.06260 amu.
 Principal axes and moments of inertia in atomic units:
                           1         2         3
     Eigenvalues --   345.435791167.468501512.90429
           X           -0.38913   0.92118   0.00000
           Y            0.92118   0.38913   0.00000
           Z           -0.00000   0.00000   1.00000
 This molecule is an asymmetric top.
 Rotational symmetry number  1.
 Rotational temperatures (Kelvin)      0.25074     0.07419     0.05725
 Rotational constants (GHZ):           5.22453     1.54586     1.19290
 Zero-point vibrational energy     349649.1 (Joules/Mol)
                                   83.56813 (Kcal/Mol)
 Warning -- explicit consideration of   7 degrees of freedom as
           vibrations may cause significant error
 Vibrational temperatures:     56.79   295.44   339.49   594.79   645.07
          (Kelvin)            647.35   810.30   916.20   948.38  1026.12
                             1136.25  1155.44  1231.98  1350.39  1355.02
                             1430.73  1454.95  1466.23  1488.54  1502.07
                             1522.40  1601.40  1703.86  1735.80  1766.26
                             1899.39  1938.54  1967.94  2096.64  2140.69
                             2204.66  2325.70  2362.05  2429.09  4510.62
                             4532.12  4550.76  4560.56  4574.64  4587.34
                             4598.46  4645.80

 Zero-point correction=                           0.133174 (Hartree/Particle)
 Thermal correction to Energy=                    0.139948
 Thermal correction to Enthalpy=                  0.140892
 Thermal correction to Gibbs Free Energy=         0.101624
 Sum of electronic and zero-point Energies=           -309.635538
 Sum of electronic and thermal Energies=              -309.628764
 Sum of electronic and thermal Enthalpies=            -309.627820
 Sum of electronic and thermal Free Energies=         -309.667088

                     E (Thermal)             CV                S
                      KCal/Mol        Cal/Mol-Kelvin    Cal/Mol-Kelvin
 Total                   87.818             25.994             82.645
 Electronic               0.000              0.000              0.000
 Translational            0.889              2.981             39.837
 Rotational               0.889              2.981             27.903
 Vibrational             86.041             20.033             14.906
 Vibration     1          0.594              1.981              5.285
 Vibration     2          0.640              1.832              2.085
 Vibration     3          0.655              1.786              1.833
 Vibration     4          0.777              1.441              0.915
 Vibration     5          0.807              1.365              0.801
 Vibration     6          0.809              1.361              0.796
 Vibration     7          0.919              1.111              0.518

 Optimization completed.
    -- Stationary point found.
 Normal termination of Gaussian 16 at Thu Sep 28 13:37:06 2023.
 Gaussian 16:  ES64L-G16RevB.01 20-Dec-2017

 ---------------------------------
 # rohf/gen geom=check guess=check
 ---------------------------------

 -------------------------
 styrene, ROHF/cc-pVTZ-F12
 -------------------------
 Structure from the checkpoint file:  "styrene.chk"
 Charge =  0 Multiplicity = 1

                         Standard orientation:
 ---------------------------------------------------------------------
 Center     Atomic      Atomic             Coordinates (Angstroms)
 Number     Number       Type             X           Y           Z
 ---------------------------------------------------------------------
      1          6           0        0.000000    0.557804    0.000000
      2          6           0       -1.003964   -0.420339    0.000000
      3          6           0       -0.683900   -1.768622    0.000000
      4          6           0        0.647817   -2.177623    0.000000
      5          6           0        1.655594   -1.222015    0.000000
      6          6           0        1.332422    0.129147    0.000000
      7          6           0       -0.281565    1.999522    0.000000
      8          6           0       -1.472719    2.596893    0.000000
      9          1           0       -2.044162   -0.125249    0.000000
     10          1           0       -1.475046   -2.506648    0.000000
     11          1           0        0.893814   -3.230861    0.000000
     12          1           0        2.693580   -1.526802    0.000000
     13          1           0        2.123036    0.869090    0.000000
     14          1           0        0.602520    2.629227    0.000000
     15          1           0       -1.551108    3.674731    0.000000
     16          1           0       -2.404747    2.047908    0.000000
 ---------------------------------------------------------------------

 SCF Done:  E(ROHF) =  -307.706141531     A.U. after   12 cycles

 The electronic state is 1-A'.
 Alpha  occ. eigenvalues --  -11.24464 -11.23951 -11.23577 -11.23540 -11.23445
 Alpha  occ. eigenvalues --  -11.23398 -11.23351 -11.22660  -1.16078  -1.07267
 Alpha  occ. eigenvalues --   -1.01844  -0.99160  -0.85308  -0.82800  -0.76708
 Alpha  occ. eigenvalues --   -0.70158  -0.65558  -0.63539  -0.61105  -0.58805
 Alpha  occ. eigenvalues --   -0.58049  -0.52761  -0.51573  -0.49603  -0.48790
 Alpha  occ. eigenvalues --   -0.41212  -0.34041  -0.30645
 Alpha virt. eigenvalues --    0.04715   0.04759   0.04926   0.06299   0.06568
 Alpha virt. eigenvalues --    0.06757   0.08270   0.08628   0.09017   0.09929
 Alpha virt. eigenvalues --    0.10219   0.10610   0.10882   0.11178   0.12262

 Mulliken charges and spin densities:
               1          2
     1  C    0.245541   0.000000
     2  C   -0.133574   0.000000
     3  C   -0.145536   0.000000
     4  C   -0.184450   0.000000
     5  C   -0.155552   0.000000
     6  C   -0.190476   0.000000
     7  C   -0.209012   0.000000
     8  C   -0.344262   0.000000
     9  H    0.135476   0.000000
    10  H    0.140133   0.000000
    11  H    0.142257   0.000000
    12  H    0.140438   0.000000
    13  H    0.125461   0.000000
    14  H    0.140297   0.000000
    15  H    0.157625   0.000000
    16  H    0.135633   0.000000
 Sum of Mulliken charges =  -0.00000   0.00000

 Dipole moment (field-independent basis, Debye):
    X=              0.0602    Y=             -0.1589    Z=              0.0000  Tot=              0.1699
 Quadrupole moment (field-independent basis, Debye-Ang):
   XX=            -42.5908   YY=            -43.3834   ZZ=            -54.3760
   XY=              0.2494   XZ=              0.0000   YZ=              0.0000

 Normal termination of Gaussian 16 at Thu Sep 28 13:53:37 2023.
