 Gaussian 16, Revision B.01,
 Gaussian 16:  ES64L-G16RevB.01 20-Dec-2017

 --------------------
 # b3lyp/gen opt freq
 --------------------

 ----------------------
 styrene, B3LYP/pcseg-2
 ----------------------
 Symbolic Z-matrix:
 Charge =  0 Multiplicity = 1

 SCF Done:  E(RB3LYP) =  -309.768711165     A.U. after   13 cycles
 SCF Done:  E(RB3LYP) =  -309.768711938     A.U. after    6 cycles
 Optimization completed.
    -- Stationary point found.
 Normal termination of Gaussian 16 at Thu Jun 16 14:47:44 2022.

 ------------------------------------------------------------------
 #N Geom=AllCheck Guess=TCheck SCRF=Check GenChk RB3LYP/ChkBas Freq
 ------------------------------------------------------------------

 Structure from the checkpoint file:  "/wrk/irikura/Gau-15039.chk"
 ----------------------
 styrene, B3LYP/pcseg-2
 ----------------------
 Charge =  0 Multiplicity = 1

                         Standard orientation:
 ---------------------------------------------------------------------
 Center     Atomic      Atomic             Coordinates (Angstroms)
 Number     Number       Type             X           Y           Z
 ---------------------------------------------------------------------
      1          6           0        0.000000    0.557804    0.000000
      2          6           0       -1.003964   -0.420339    0.000000
      3          6           0       -0.683900   -1.768622    0.000000
      4          6           0        0.647817   -2.177623    0.000000
      5          6           0        1.655594   -1.222015    0.000000
      6          6           0        1.332422    0.129147    0.000000
      7          6           0       -0.281565    1.999522    0.000000
      8          6           0       -1.472719    2.596893    0.000000
      9          1           0       -2.044162   -0.125249    0.000000
     10          1           0       -1.475046   -2.506648    0.000000
     11          1           0        0.893814   -3.230861    0.000000
     12          1           0        2.693580   -1.526802    0.000000
     13          1           0        2.123036    0.869090    0.000000
     14          1           0        0.602520    2.629227    0.000000
     15          1           0       -1.551108    3.674731    0.000000
     16          1           0       -2.404747    2.047908    0.000000
 ---------------------------------------------------------------------

 SCF Done:  E(RB3LYP) =  -309.768711938     A.U. after    1 cycles

 The electronic state is 1-A'.
 Alpha  occ. eigenvalues --  -10.18800 -10.18221 -10.17900 -10.17869 -10.17820
 Alpha  occ. eigenvalues --  -10.17795 -10.17777 -10.17054  -0.86681  -0.79610
 Alpha  occ. eigenvalues --   -0.75331  -0.73179  -0.63047  -0.61093  -0.56554
 Alpha  occ. eigenvalues --   -0.52116  -0.48109  -0.46204  -0.44620  -0.42737
 Alpha  occ. eigenvalues --   -0.41921  -0.38480  -0.37727  -0.35177  -0.34512
 Alpha  occ. eigenvalues --   -0.31075  -0.26311  -0.23539
 Alpha virt. eigenvalues --   -0.04883  -0.01770   0.01660   0.03065   0.03401
 Alpha virt. eigenvalues --    0.03777   0.05577   0.05755   0.08378   0.10058
 Alpha virt. eigenvalues --    0.12931   0.12952   0.13593   0.15576   0.16445

 Mulliken charges:
               1
     1  C    0.363549
     2  C   -0.119098
     3  C   -0.028650
     4  C   -0.011897
     5  C   -0.028844
     6  C   -0.118166
     7  C   -0.125236
     8  C   -0.090886
     9  H   -0.000054
    10  H    0.018395
    11  H    0.021215
    12  H    0.019042
    13  H    0.004377
    14  H    0.011079
    15  H    0.048412
    16  H    0.036764
 Sum of Mulliken charges =   0.00000

 Dipole moment (field-independent basis, Debye):
    X=              0.0816    Y=             -0.1906    Z=              0.0000  Tot=              0.2073
 Quadrupole moment (field-independent basis, Debye-Ang):
   XX=            -43.0465   YY=            -43.5817   ZZ=            -53.2766
   XY=              0.2887   XZ=              0.0000   YZ=              0.0000

  Exact polarizability: 106.706 -19.609 128.984   0.000  -0.000  51.548
 Approx polarizability: 180.678 -29.011 196.515  -0.000  -0.000  80.149

                      1                      2                      3
                     A"                     A"                     A'
 Frequencies --     39.4544               205.3349               235.9585
 Red. masses --      2.3813                 2.3666                 3.1207
 Frc consts  --      0.0022                 0.0588                 0.1024
 IR Inten    --      0.0030                 2.0975                 0.4562

                      4                      5                      6
                     A"                     A"                     A'
 Frequencies --    413.3998               448.3448               449.9304
 Red. masses --      2.8048                 2.3453                 4.4274
 Frc consts  --      0.2824                 0.2778                 0.5281
 IR Inten    --      0.2957                10.1387                 0.1129

                      7                      8                      9
                     A'                     A'                     A"
 Frequencies --    563.1829               636.7941               659.1553
 Red. masses --      3.2045                 6.4180                 1.9697
 Frc consts  --      0.5988                 1.5334                 0.5042
 IR Inten    --      5.3061                 0.0374                 0.0043

                     10                     11                     12
                     A"                     A'                     A"
 Frequencies --    713.1842               789.7352               803.0674
 Red. masses --      1.3898                 3.9249                 2.0253
 Frc consts  --      0.4165                 1.4423                 0.7696
 IR Inten    --     45.0671                 0.1071                34.5648

                     13                     14                     15
                     A"                     A"                     A"
 Frequencies --    856.2679               938.5704               941.7891
 Red. masses --      1.2568                 1.4686                 1.3558
 Frc consts  --      0.5429                 0.7623                 0.7085
 IR Inten    --      0.3952                 1.5556                46.1001

                     16                     17                     18
                     A"                     A"                     A'
 Frequencies --    994.4065              1011.2369              1019.0792
 Red. masses --      1.3769                 1.2977                 5.4987
 Frc consts  --      0.8022                 0.7819                 3.3645
 IR Inten    --      0.0022                 0.4865                 0.3190

                     19                     20                     21
                     A"                     A'                     A'
 Frequencies --   1034.5861              1043.9882              1058.1235
 Red. masses --      1.1445                 2.0034                 1.7064
 Frc consts  --      0.7218                 1.2865                 1.1257
 IR Inten    --     14.5933                 5.8794                 0.1946

                     22                     23                     24
                     A'                     A'                     A'
 Frequencies --   1113.0304              1184.2421              1206.4411
 Red. masses --      1.5862                 1.1195                 1.1654
 Frc consts  --      1.1578                 0.9250                 0.9994
 IR Inten    --      4.8782                 0.2137                 0.1130

                     25                     26                     27
                     A'                     A'                     A'
 Frequencies --   1227.6097              1320.1400              1347.3566
 Red. masses --      2.4911                 2.7535                 1.8574
 Frc consts  --      2.2119                 2.8273                 1.9866
 IR Inten    --      1.8538                 2.6177                 0.6889

                     28                     29                     30
                     A'                     A'                     A'
 Frequencies --   1367.7863              1457.2410              1487.8575
 Red. masses --      1.3271                 1.3568                 1.9028
 Frc consts  --      1.4629                 1.6976                 2.4818
 IR Inten    --      2.0783                 5.5791                 3.6887

                     31                     32                     33
                     A'                     A'                     A'
 Frequencies --   1532.3147              1616.4416              1641.7064
 Red. masses --      2.1786                 4.9249                 5.4058
 Frc consts  --      3.0138                 7.5817                 8.5842
 IR Inten    --      9.5225                 3.1051                 1.3080

                     34                     35                     36
                     A'                     A'                     A'
 Frequencies --   1688.3045              3135.0531              3149.9851
 Red. masses --      4.2542                 1.0842                 1.0638
 Frc consts  --      7.1445                 6.2786                 6.2191
 IR Inten    --     16.8606                12.4708                 2.7153

                     37                     38                     39
                     A'                     A'                     A'
 Frequencies --   3162.9459              3169.7548              3179.5375
 Red. masses --      1.0862                 1.0865                 1.0903
 Frc consts  --      6.4024                 6.4321                 6.4939
 IR Inten    --      7.1310                 0.1167                13.7282

                     40                     41                     42
                     A'                     A'                     A'
 Frequencies --   3188.3720              3196.0932              3228.9894
 Red. masses --      1.0929                 1.0973                 1.1152
 Frc consts  --      6.5458                 6.6038                 6.8505
 IR Inten    --     25.4533                10.1955                11.2648

 - Thermochemistry -
 -------------------
 Temperature   298.150 Kelvin.  Pressure   1.00000 Atm.
 Atom     1 has atomic number  6 and mass  12.00000

 Molecular mass:   104.06260 amu.
 Principal axes and moments of inertia in atomic units:
                           1         2         3
     Eigenvalues --   345.435791167.468391512.90418
           X           -0.38913   0.92118   0.00000
           Y            0.92118   0.38913   0.00000
           Z           -0.00000   0.00000   1.00000
 This molecule is an asymmetric top.
 Rotational symmetry number  1.
 Rotational temperatures (Kelvin)      0.25074     0.07419     0.05725
 Rotational constants (GHZ):           5.22453     1.54586     1.19290
 Zero-point vibrational energy     349649.3 (Joules/Mol)
                                   83.56818 (Kcal/Mol)
 Warning -- explicit consideration of   7 degrees of freedom as
           vibrations may cause significant error
 Vibrational temperatures:     56.77   295.43   339.49   594.79   645.07
          (Kelvin)            647.35   810.29   916.20   948.38  1026.11
                             1136.25  1155.43  1231.98  1350.39  1355.02
                             1430.73  1454.94  1466.23  1488.54  1502.07
                             1522.40  1601.40  1703.86  1735.80  1766.26
                             1899.39  1938.55  1967.94  2096.64  2140.70
                             2204.66  2325.70  2362.05  2429.09  4510.64
                             4532.13  4550.77  4560.57  4574.65  4587.36
                             4598.47  4645.80

 Zero-point correction=                           0.133174 (Hartree/Particle)
 Thermal correction to Energy=                    0.139948
 Thermal correction to Enthalpy=                  0.140892
 Thermal correction to Gibbs Free Energy=         0.101624
 Sum of electronic and zero-point Energies=           -309.635538
 Sum of electronic and thermal Energies=              -309.628764
 Sum of electronic and thermal Enthalpies=            -309.627820
 Sum of electronic and thermal Free Energies=         -309.667088

                     E (Thermal)             CV                S
                      KCal/Mol        Cal/Mol-Kelvin    Cal/Mol-Kelvin
 Total                   87.819             25.995             82.646
 Electronic               0.000              0.000              0.000
 Translational            0.889              2.981             39.837
 Rotational               0.889              2.981             27.903
 Vibrational             86.041             20.033             14.907
 Vibration     1          0.594              1.981              5.286
 Vibration     2          0.640              1.832              2.085
 Vibration     3          0.655              1.786              1.833
 Vibration     4          0.777              1.441              0.915
 Vibration     5          0.807              1.365              0.801
 Vibration     6          0.809              1.361              0.796
 Vibration     7          0.919              1.111              0.518

 Optimization completed.
    -- Stationary point found.
 Normal termination of Gaussian 16 at Thu Jun 16 14:54:45 2022.
