 Gaussian 16, Revision B.01,

 ---------------------------------------
 # b3lyp/gen opt freq CPHF(Grid=OneStep)
 ---------------------------------------

 -------------------------------
 butanedioic acid, B3LYP/pcseg-2
 -------------------------------
 Symbolic Z-matrix:
 Charge =  0 Multiplicity = 1

 SCF Done:  E(RB3LYP) =  -457.172413377     A.U. after   13 cycles
 Optimization completed.
    -- Stationary point found.
 Normal termination of Gaussian 16 at Sat Sep 30 14:39:54 2023.

 ------------------------------------------------------------------
 #N Geom=AllCheck Guess=TCheck SCRF=Check GenChk RB3LYP/ChkBas Freq
 ------------------------------------------------------------------

 Structure from the checkpoint file:  "succinicA.chk"
 -------------------------------
 butanedioic acid, B3LYP/pcseg-2
 -------------------------------
 Charge =  0 Multiplicity = 1

 SCF Done:  E(RB3LYP) =  -457.172413377     A.U. after    1 cycles

  Exact polarizability:  54.807  -4.828  69.453  -0.000  -0.000  56.886
 Approx polarizability:  88.297 -11.830  86.069   0.000  -0.000  82.789

                      1                      2                      3
                      B                      A                      A
 Frequencies --     34.7948                59.8178                69.6105
 Red. masses --      6.6145                 7.5568                 7.7842
 Frc consts  --      0.0047                 0.0159                 0.0222
 IR Inten    --      1.9975                 0.9411                 0.4243

                      4                      5                      6
                      A                      B                      A
 Frequencies --    232.0067               273.2499               374.8117
 Red. masses --      2.5071                 3.4256                 5.8237
 Frc consts  --      0.0795                 0.1507                 0.4820
 IR Inten    --      3.0188                 5.2932                 0.0178

                      7                      8                      9
                      B                      A                      B
 Frequencies --    499.4606               512.9007               536.4591
 Red. masses --      1.6110                 1.7221                 3.4669
 Frc consts  --      0.2368                 0.2669                 0.5878
 IR Inten    --     18.2992                 9.5606                81.3289

                     10                     11                     12
                      A                      B                      B
 Frequencies --    608.5352               632.6660               661.5276
 Red. masses --      2.5159                 1.9596                 2.1856
 Frc consts  --      0.5489                 0.4621                 0.5635
 IR Inten    --     62.2880                61.8948                53.3822

                     13                     14                     15
                      A                      A                      B
 Frequencies --    668.5634               813.1076               824.3870
 Red. masses --      1.9152                 3.5849                 3.0456
 Frc consts  --      0.5044                 1.3965                 1.2195
 IR Inten    --     33.3334                15.4655                18.9815

                     16                     17                     18
                      B                      A                      A
 Frequencies --    967.2444               996.2444              1069.9506
 Red. masses --      2.6019                 1.9772                 2.8882
 Frc consts  --      1.4342                 1.1562                 1.9481
 IR Inten    --     15.9036                 3.5318                 0.0000

                     19                     20                     21
                      B                      A                      B
 Frequencies --   1142.5803              1156.3332              1223.6219
 Red. masses --      2.5682                 2.3935                 1.2332
 Frc consts  --      1.9754                 1.8856                 1.0879
 IR Inten    --    555.6459                22.1246                46.4997

                     22                     23                     24
                      A                      B                      A
 Frequencies --   1259.8453              1308.7553              1318.8717
 Red. masses --      1.3019                 1.4855                 1.6111
 Frc consts  --      1.2175                 1.4991                 1.6511
 IR Inten    --      2.8727                 9.8516                 1.2144

                     25                     26                     27
                      B                      A                      B
 Frequencies --   1409.3782              1423.1658              1449.4494
 Red. masses --      1.9812                 2.0776                 1.0843
 Frc consts  --      2.3186                 2.4792                 1.3421
 IR Inten    --    104.7715                15.6060                24.4459

                     28                     29                     30
                      A                      B                      A
 Frequencies --   1453.0378              1807.2438              1811.9802
 Red. masses --      1.0906                 9.4920                 9.7004
 Frc consts  --      1.3566                18.2660                18.7650
 IR Inten    --     21.9488               426.9083               144.3776

                     31                     32                     33
                      B                      A                      A
 Frequencies --   3051.0940              3059.3837              3098.6642
 Red. masses --      1.0663                 1.0656                 1.0968
 Frc consts  --      5.8485                 5.8766                 6.2047
 IR Inten    --     11.3615                 4.1616                 0.0791

                     34                     35                     36
                      B                      B                      A
 Frequencies --   3111.1189              3749.4908              3749.8512
 Red. masses --      1.0945                 1.0642                 1.0642
 Frc consts  --      6.2414                 8.8149                 8.8169
 IR Inten    --      1.9782                81.2114                57.1062

 - Thermochemistry -
 -------------------
 Temperature   298.150 Kelvin.  Pressure   1.00000 Atm.
 Atom     1 has atomic number  6 and mass  12.00000

 Molecular mass:   118.02661 amu.
 Principal axes and moments of inertia in atomic units:
                           1         2         3
     Eigenvalues --   414.234331576.097871581.24594
           X            0.05763   0.00000   0.99834
           Y            0.99834   0.00000  -0.05763
           Z           -0.00000   1.00000  -0.00000
 This molecule is an asymmetric top.
 Rotational symmetry number  2.
 Rotational temperatures (Kelvin)      0.20909     0.05495     0.05478
 Rotational constants (GHZ):           4.35681     1.14507     1.14134
 Zero-point vibrational energy     277648.5 (Joules/Mol)
                                   66.35958 (Kcal/Mol)
 Warning -- explicit consideration of  10 degrees of freedom as
           vibrations may cause significant error
 Vibrational temperatures:     50.06    86.06   100.15   333.81   393.15
          (Kelvin)            539.27   718.61   737.95   771.85   875.55
                              910.27   951.79   961.91  1169.88  1186.11
                             1391.65  1433.37  1539.42  1643.92  1663.71
                             1760.52  1812.64  1883.01  1897.56  2027.78
                             2047.62  2085.43  2090.60  2600.22  2607.04
                             4389.84  4401.77  4458.29  4476.21  5394.68
                             5395.20

 Zero-point correction=                           0.105751 (Hartree/Particle)
 Thermal correction to Energy=                    0.113925
 Thermal correction to Enthalpy=                  0.114869
 Thermal correction to Gibbs Free Energy=         0.071982
 Sum of electronic and zero-point Energies=           -457.066663
 Sum of electronic and thermal Energies=              -457.058489
 Sum of electronic and thermal Enthalpies=            -457.057544
 Sum of electronic and thermal Free Energies=         -457.100431

                     E (Thermal)             CV                S
                      KCal/Mol        Cal/Mol-Kelvin    Cal/Mol-Kelvin
 Total                   71.489             28.232             90.263
 Electronic               0.000              0.000              0.000
 Translational            0.889              2.981             40.212
 Rotational               0.889              2.981             27.048
 Vibrational             69.711             22.270             23.003
 Vibration     1          0.594              1.983              5.535
 Vibration     2          0.597              1.973              4.463
 Vibration     3          0.598              1.969              4.164
 Vibration     4          0.653              1.792              1.863
 Vibration     5          0.676              1.723              1.576
 Vibration     6          0.746              1.524              1.060
 Vibration     7          0.855              1.251              0.659
 Vibration     8          0.868              1.221              0.627
 Vibration     9          0.891              1.169              0.573
 Vibration    10          0.967              1.014              0.435

 Optimization completed.
    -- Stationary point found.
 Normal termination of Gaussian 16 at Sat Sep 30 14:56:03 2023.
 Gaussian 16:  ES64L-G16RevB.01 20-Dec-2017

 ---------------------------------
 # rohf/gen geom=check guess=check
 ---------------------------------

 ----------------------------------
 butanedioic acid, ROHF/cc-pVTZ-F12
 ----------------------------------
 Structure from the checkpoint file:  "succinicA.chk"
 Charge =  0 Multiplicity = 1

                         Standard orientation:
 ---------------------------------------------------------------------
 Center     Atomic      Atomic             Coordinates (Angstroms)
 Number     Number       Type             X           Y           Z
 ---------------------------------------------------------------------
      1          6           0       -0.276996    0.708039    1.043954
      2          6           0        0.276996   -0.708039    1.043954
      3          6           0        0.276996    1.551512   -0.079896
      4          6           0       -0.276996   -1.551512   -0.079896
      5          8           0        1.202558    1.256706   -0.789500
      6          8           0       -1.202558   -1.256706   -0.789500
      7          8           0       -0.381954    2.726371   -0.188190
      8          8           0        0.381954   -2.726371   -0.188190
      9          1           0       -1.363752    0.709445    0.970826
     10          1           0       -0.026070    1.213440    1.979220
     11          1           0        1.363752   -0.709445    0.970826
     12          1           0        0.026070   -1.213440    1.979220
     13          1           0        0.027338    3.219832   -0.912875
     14          1           0       -0.027338   -3.219832   -0.912875
 ---------------------------------------------------------------------

 SCF Done:  E(ROHF) =  -454.674419043     A.U. after   11 cycles

 The electronic state is 1-A.
 Alpha  occ. eigenvalues --  -20.61424 -20.61424 -20.55284 -20.55284 -11.39141
 Alpha  occ. eigenvalues --  -11.39141 -11.25984 -11.25920  -1.47151  -1.46939
 Alpha  occ. eigenvalues --   -1.36920  -1.36737  -1.09804  -0.97235  -0.84562
 Alpha  occ. eigenvalues --   -0.78794  -0.71457  -0.71265  -0.70728  -0.69925
 Alpha  occ. eigenvalues --   -0.64953  -0.64808  -0.59874  -0.59862  -0.55468
 Alpha  occ. eigenvalues --   -0.54991  -0.53736  -0.49514  -0.48541  -0.46339
 Alpha  occ. eigenvalues --   -0.45706
 Alpha virt. eigenvalues --    0.03855   0.04786   0.05109   0.05705   0.07328
 Alpha virt. eigenvalues --    0.08420   0.08787   0.09142   0.09188   0.11561
 Alpha virt. eigenvalues --    0.11838   0.12122   0.12960   0.15391   0.15796

 Mulliken charges and spin densities:
               1          2
     1  C   -0.123860   0.000000
     2  C   -0.123860   0.000000
     3  C    0.805031   0.000000
     4  C    0.805031   0.000000
     5  O   -0.644397   0.000000
     6  O   -0.644397   0.000000
     7  O   -0.710293   0.000000
     8  O   -0.710293   0.000000
     9  H    0.134574   0.000000
    10  H    0.101487   0.000000
    11  H    0.134574   0.000000
    12  H    0.101487   0.000000
    13  H    0.437457   0.000000
    14  H    0.437457   0.000000
 Sum of Mulliken charges =  -0.00000   0.00000

 Dipole moment (field-independent basis, Debye):
    X=              0.0000    Y=              0.0000    Z=              2.1589  Tot=              2.1589
 Quadrupole moment (field-independent basis, Debye-Ang):
   XX=            -52.6777   YY=            -37.9041   ZZ=            -43.3241
   XY=              0.2845   XZ=              0.0000   YZ=             -0.0000

 Normal termination of Gaussian 16 at Sat Sep 30 15:01:54 2023.
