 Gaussian 16, Revision B.01,
 Gaussian 16:  ES64L-G16RevB.01 20-Dec-2017

 --------------------
 # b3lyp/gen opt freq
 --------------------

 -------------------------------
 butanedioic acid, B3LYP/pcseg-2
 -------------------------------
 Symbolic Z-matrix:
 Charge =  0 Multiplicity = 1

 SCF Done:  E(RB3LYP) =  -457.172156342     A.U. after   13 cycles
 SCF Done:  E(RB3LYP) =  -457.172364778     A.U. after   11 cycles
 SCF Done:  E(RB3LYP) =  -457.172167667     A.U. after   10 cycles
 SCF Done:  E(RB3LYP) =  -457.172412444     A.U. after   10 cycles
 SCF Done:  E(RB3LYP) =  -457.172413376     A.U. after    7 cycles
 Optimization completed.
    -- Stationary point found.
 Normal termination of Gaussian 16 at Fri Jun 17 20:48:27 2022.

 ------------------------------------------------------------------
 #N Geom=AllCheck Guess=TCheck SCRF=Check GenChk RB3LYP/ChkBas Freq
 ------------------------------------------------------------------

 Structure from the checkpoint file:  "/wrk/irikura/Gau-29589.chk"
 -------------------------------
 butanedioic acid, B3LYP/pcseg-2
 -------------------------------
 Charge =  0 Multiplicity = 1

                         Standard orientation:
 ---------------------------------------------------------------------
 Center     Atomic      Atomic             Coordinates (Angstroms)
 Number     Number       Type             X           Y           Z
 ---------------------------------------------------------------------
      1          6           0       -0.276996    0.708039    1.043954
      2          6           0        0.276996   -0.708039    1.043954
      3          6           0        0.276996    1.551512   -0.079896
      4          6           0       -0.276996   -1.551512   -0.079896
      5          8           0        1.202558    1.256706   -0.789500
      6          8           0       -1.202558   -1.256706   -0.789500
      7          8           0       -0.381954    2.726371   -0.188190
      8          8           0        0.381954   -2.726371   -0.188190
      9          1           0       -1.363752    0.709445    0.970826
     10          1           0       -0.026070    1.213440    1.979220
     11          1           0        1.363752   -0.709445    0.970826
     12          1           0        0.026070   -1.213440    1.979220
     13          1           0        0.027338    3.219832   -0.912875
     14          1           0       -0.027338   -3.219832   -0.912875
 ---------------------------------------------------------------------

 SCF Done:  E(RB3LYP) =  -457.172413376     A.U. after    1 cycles

 The electronic state is 1-A.
 Alpha  occ. eigenvalues --  -19.18112 -19.18112 -19.12430 -19.12430 -10.31805
 Alpha  occ. eigenvalues --  -10.31805 -10.20332 -10.20307  -1.12252  -1.12078
 Alpha  occ. eigenvalues --   -1.03380  -1.03202  -0.82226  -0.72899  -0.64090
 Alpha  occ. eigenvalues --   -0.58999  -0.52653  -0.52179  -0.49999  -0.49627
 Alpha  occ. eigenvalues --   -0.47374  -0.46939  -0.42223  -0.42076  -0.40507
 Alpha  occ. eigenvalues --   -0.38944  -0.38415  -0.34284  -0.33698  -0.29838
 Alpha  occ. eigenvalues --   -0.29491
 Alpha virt. eigenvalues --   -0.01258  -0.00691   0.00556   0.01120   0.02607
 Alpha virt. eigenvalues --    0.06021   0.06307   0.08337   0.12978   0.12996
 Alpha virt. eigenvalues --    0.14348   0.15876   0.16531   0.17229   0.18417

 Mulliken charges:
               1
     1  C   -0.019217
     2  C   -0.019217
     3  C    0.471608
     4  C    0.471608
     5  O   -0.432629
     6  O   -0.432629
     7  O   -0.352808
     8  O   -0.352808
     9  H    0.066459
    10  H    0.053068
    11  H    0.066459
    12  H    0.053068
    13  H    0.213518
    14  H    0.213518
 Sum of Mulliken charges =  -0.00000

 Dipole moment (field-independent basis, Debye):
    X=              0.0000    Y=             -0.0000    Z=              1.8443  Tot=              1.8443
 Quadrupole moment (field-independent basis, Debye-Ang):
   XX=            -52.5111   YY=            -38.0152   ZZ=            -43.7170
   XY=              0.4551   XZ=              0.0000   YZ=              0.0000

  Exact polarizability:  54.806  -4.828  69.452  -0.000  -0.000  56.885
 Approx polarizability:  88.297 -11.830  86.069  -0.000   0.000  82.789

                      1                      2                      3
                      B                      A                      A
 Frequencies --     34.7964                59.8196                69.6109
 Red. masses --      6.6144                 7.5552                 7.7857
 Frc consts  --      0.0047                 0.0159                 0.0222
 IR Inten    --      1.9975                 0.9409                 0.4247

                      4                      5                      6
                      A                      B                      A
 Frequencies --    232.0089               273.2513               374.8133
 Red. masses --      2.5071                 3.4256                 5.8238
 Frc consts  --      0.0795                 0.1507                 0.4820
 IR Inten    --      3.0189                 5.2920                 0.0178

                      7                      8                      9
                      B                      A                      B
 Frequencies --    499.4544               512.8990               536.4582
 Red. masses --      1.6110                 1.7221                 3.4668
 Frc consts  --      0.2368                 0.2669                 0.5878
 IR Inten    --     18.2998                 9.5607                81.3314

                     10                     11                     12
                      A                      B                      B
 Frequencies --    608.5316               632.6640               661.5276
 Red. masses --      2.5159                 1.9597                 2.1856
 Frc consts  --      0.5489                 0.4621                 0.5635
 IR Inten    --     62.2839                61.8940                53.3848

                     13                     14                     15
                      A                      A                      B
 Frequencies --    668.5618               813.1056               824.3841
 Red. masses --      1.9152                 3.5849                 3.0456
 Frc consts  --      0.5044                 1.3964                 1.2195
 IR Inten    --     33.3348                15.4651                18.9827

                     16                     17                     18
                      B                      A                      A
 Frequencies --    967.2421               996.2424              1069.9529
 Red. masses --      2.6019                 1.9771                 2.8881
 Frc consts  --      1.4342                 1.1562                 1.9480
 IR Inten    --     15.9048                 3.5321                 0.0000

                     19                     20                     21
                      B                      A                      B
 Frequencies --   1142.5790              1156.3296              1223.6220
 Red. masses --      2.5683                 2.3936                 1.2332
 Frc consts  --      1.9755                 1.8856                 1.0879
 IR Inten    --    555.6166                22.1224                46.4925

                     22                     23                     24
                      A                      B                      A
 Frequencies --   1259.8438              1308.7550              1318.8705
 Red. masses --      1.3020                 1.4855                 1.6111
 Frc consts  --      1.2175                 1.4991                 1.6511
 IR Inten    --      2.8729                 9.8430                 1.2143

                     25                     26                     27
                      B                      A                      B
 Frequencies --   1409.3781              1423.1656              1449.4520
 Red. masses --      1.9812                 2.0776                 1.0843
 Frc consts  --      2.3187                 2.4792                 1.3421
 IR Inten    --    104.7674                15.6059                24.4472

                     28                     29                     30
                      A                      B                      A
 Frequencies --   1453.0418              1807.2640              1811.9799
 Red. masses --      1.0906                 9.4923                 9.7005
 Frc consts  --      1.3567                18.2670                18.7650
 IR Inten    --     21.9503               426.9176               144.3764

                     31                     32                     33
                      B                      A                      A
 Frequencies --   3051.0913              3059.3827              3098.6700
 Red. masses --      1.0663                 1.0656                 1.0968
 Frc consts  --      5.8485                 5.8767                 6.2047
 IR Inten    --     11.3673                 4.1608                 0.0789

                     34                     35                     36
                      B                      B                      A
 Frequencies --   3111.1262              3749.4890              3749.8495
 Red. masses --      1.0945                 1.0642                 1.0642
 Frc consts  --      6.2414                 8.8149                 8.8169
 IR Inten    --      1.9780                81.2093                57.1054

 - Thermochemistry -
 -------------------
 Temperature   298.150 Kelvin.  Pressure   1.00000 Atm.
 Atom     1 has atomic number  6 and mass  12.00000

 Molecular mass:   118.02661 amu.
 Principal axes and moments of inertia in atomic units:
                           1         2         3
     Eigenvalues --   414.234531576.097741581.24563
           X            0.05763   0.00000   0.99834
           Y            0.99834   0.00000  -0.05763
           Z           -0.00000   1.00000  -0.00000
 This molecule is an asymmetric top.
 Rotational symmetry number  2.
 Rotational temperatures (Kelvin)      0.20909     0.05495     0.05478
 Rotational constants (GHZ):           4.35681     1.14507     1.14134
 Zero-point vibrational energy     277648.6 (Joules/Mol)
                                   66.35960 (Kcal/Mol)
 Warning -- explicit consideration of  10 degrees of freedom as
           vibrations may cause significant error
 Vibrational temperatures:     50.06    86.07   100.15   333.81   393.15
          (Kelvin)            539.27   718.60   737.95   771.84   875.54
                              910.26   951.79   961.91  1169.88  1186.10
                             1391.65  1433.37  1539.42  1643.92  1663.70
                             1760.52  1812.63  1883.01  1897.56  2027.78
                             2047.62  2085.44  2090.60  2600.25  2607.03
                             4389.84  4401.77  4458.29  4476.22  5394.68
                             5395.20

 Zero-point correction=                           0.105751 (Hartree/Particle)
 Thermal correction to Energy=                    0.113925
 Thermal correction to Enthalpy=                  0.114869
 Thermal correction to Gibbs Free Energy=         0.071982
 Sum of electronic and zero-point Energies=           -457.066663
 Sum of electronic and thermal Energies=              -457.058489
 Sum of electronic and thermal Enthalpies=            -457.057544
 Sum of electronic and thermal Free Energies=         -457.100431

                     E (Thermal)             CV                S
                      KCal/Mol        Cal/Mol-Kelvin    Cal/Mol-Kelvin
 Total                   71.489             28.232             90.263
 Electronic               0.000              0.000              0.000
 Translational            0.889              2.981             40.212
 Rotational               0.889              2.981             27.048
 Vibrational             69.711             22.270             23.003
 Vibration     1          0.594              1.983              5.535
 Vibration     2          0.597              1.973              4.463
 Vibration     3          0.598              1.969              4.164
 Vibration     4          0.653              1.792              1.863
 Vibration     5          0.676              1.723              1.576
 Vibration     6          0.746              1.524              1.060
 Vibration     7          0.855              1.251              0.659
 Vibration     8          0.868              1.221              0.627
 Vibration     9          0.891              1.169              0.573
 Vibration    10          0.967              1.014              0.435

 Optimization completed.
    -- Stationary point found.
 Normal termination of Gaussian 16 at Fri Jun 17 20:52:58 2022.
