 Gaussian 16, Revision B.01,
 Gaussian 16:  ES64L-G16RevB.01 20-Dec-2017

 --------------------
 # opt freq b3lyp/gen
 --------------------

 ------------------------
 sulfolane, B3LYP/pcseg-2
 ------------------------
 Symbolic Z-matrix:
 Charge =  0 Multiplicity = 1

 SCF Done:  E(RB3LYP) =  -706.023486029     A.U. after   13 cycles
 SCF Done:  E(RB3LYP) =  -706.024883687     A.U. after   10 cycles
 SCF Done:  E(RB3LYP) =  -706.025044378     A.U. after    8 cycles
 SCF Done:  E(RB3LYP) =  -706.025047656     A.U. after    7 cycles
 Optimization completed.
    -- Stationary point found.
 Normal termination of Gaussian 16 at Tue Mar  1 20:52:19 2022.

 ------------------------------------------------------------------
 #N Geom=AllCheck Guess=TCheck SCRF=Check GenChk RB3LYP/ChkBas Freq
 ------------------------------------------------------------------

 Structure from the checkpoint file:  "/wrk/irikura/Gau-3616.chk"
 ------------------------
 sulfolane, B3LYP/pcseg-2
 ------------------------
 Charge =  0 Multiplicity = 1

                         Standard orientation:
 ---------------------------------------------------------------------
 Center     Atomic      Atomic             Coordinates (Angstroms)
 Number     Number       Type             X           Y           Z
 ---------------------------------------------------------------------
      1          8           0        0.000000    1.254438    1.507568
      2         16           0        0.000000   -0.000000    0.782998
      3          8           0       -0.000000   -1.254438    1.507568
      4          6           0        1.354740    0.005229   -0.441370
      5          6           0       -1.354740   -0.005229   -0.441370
      6          6           0        0.692793   -0.336415   -1.776112
      7          6           0       -0.692793    0.336415   -1.776112
      8          1           0        2.099523   -0.711311   -0.106279
      9          1           0        1.771744    1.010318   -0.430930
     10          1           0       -1.771744   -1.010318   -0.430930
     11          1           0       -2.099523    0.711311   -0.106279
     12          1           0        1.302878    0.000467   -2.613268
     13          1           0        0.579042   -1.417954   -1.869152
     14          1           0       -0.579042    1.417954   -1.869152
     15          1           0       -1.302878   -0.000467   -2.613268
 ---------------------------------------------------------------------

 SCF Done:  E(RB3LYP) =  -706.025047656     A.U. after    1 cycles

 The electronic state is 1-A.
 Alpha  occ. eigenvalues --  -89.02297 -19.11370 -19.11369 -10.21494 -10.21494
 Alpha  occ. eigenvalues --  -10.20747 -10.20726  -8.08725  -6.04952  -6.04897
 Alpha  occ. eigenvalues --   -6.04892  -1.10647  -1.00330  -0.86495  -0.76723
 Alpha  occ. eigenvalues --   -0.72395  -0.62225  -0.59206  -0.52402  -0.51095
 Alpha  occ. eigenvalues --   -0.47236  -0.46683  -0.44873  -0.44840  -0.40847
 Alpha  occ. eigenvalues --   -0.39754  -0.38841  -0.37449  -0.33393  -0.32305
 Alpha  occ. eigenvalues --   -0.30952  -0.29163
 Alpha virt. eigenvalues --   -0.00481   0.01515   0.02786   0.02986   0.04845
 Alpha virt. eigenvalues --    0.05522   0.06393   0.06759   0.06878   0.07484
 Alpha virt. eigenvalues --    0.08494   0.09981   0.14264   0.14376   0.15410

 Mulliken charges:
               1
     1  O   -0.524192
     2  S    0.923732
     3  O   -0.524192
     4  C   -0.142895
     5  C   -0.142895
     6  C   -0.096721
     7  C   -0.096721
     8  H    0.091436
     9  H    0.094596
    10  H    0.094596
    11  H    0.091436
    12  H    0.057454
    13  H    0.058456
    14  H    0.058456
    15  H    0.057454
 Sum of Mulliken charges =   0.00000

 Dipole moment (field-independent basis, Debye):
    X=             -0.0000    Y=             -0.0000    Z=             -5.3527  Tot=              5.3527
 Quadrupole moment (field-independent basis, Debye-Ang):
   XX=            -44.2148   YY=            -54.6061   ZZ=            -54.6181
   XY=             -0.0330   XZ=              0.0000   YZ=              0.0000

  Exact polarizability:  68.220  -0.842  64.627  -0.000  -0.000  75.157
 Approx polarizability:  96.292  -0.073 105.874  -0.000   0.000 104.560

                      1                      2                      3
                      B                      A                      A
 Frequencies --     44.8701               230.2848               309.7080
 Red. masses --      2.9283                 2.4909                 2.3003
 Frc consts  --      0.0035                 0.0778                 0.1300
 IR Inten    --      2.6172                 0.0338                 0.0015

                      4                      5                      6
                      B                      A                      B
 Frequencies --    358.5942               369.5444               427.1133
 Red. masses --      2.8809                 7.0481                 5.5632
 Frc consts  --      0.2183                 0.5671                 0.5979
 IR Inten    --      0.6551                11.4472                21.7214

                      7                      8                      9
                      B                      A                      A
 Frequencies --    510.5960               565.0657               643.8724
 Red. masses --      2.2217                 6.8247                 4.2377
 Frc consts  --      0.3413                 1.2839                 1.0351
 IR Inten    --      7.8989                19.7933                11.8861

                     10                     11                     12
                      B                      A                      A
 Frequencies --    718.0172               803.6839               879.3533
 Red. masses --      2.8674                 1.4455                 2.6654
 Frc consts  --      0.8710                 0.5501                 1.2144
 IR Inten    --     56.3831                 1.0417                 0.2170

                     13                     14                     15
                      B                      B                      B
 Frequencies --    907.2387               912.2884               979.2962
 Red. masses --      1.8605                 1.9072                 1.7959
 Frc consts  --      0.9023                 0.9352                 1.0147
 IR Inten    --      2.8696                18.8699                 0.0802

                     16                     17                     18
                      A                      A                      B
 Frequencies --    997.3788              1041.7310              1083.9655
 Red. masses --      1.3370                 1.9747                 1.1056
 Frc consts  --      0.7836                 1.2626                 0.7654
 IR Inten    --      0.0243                 1.9596                 2.6326

                     19                     20                     21
                      A                      A                      B
 Frequencies --   1119.6771              1164.5612              1217.6759
 Red. masses --      2.8421                 1.9951                 1.5026
 Frc consts  --      2.0993                 1.5942                 1.3126
 IR Inten    --     86.8372               110.0630                 1.2869

                     22                     23                     24
                      A                      B                      A
 Frequencies --   1225.6784              1284.8428              1299.8871
 Red. masses --      1.4723                 1.3040                 1.3869
 Frc consts  --      1.3031                 1.2683                 1.3808
 IR Inten    --      0.0185                22.7527                23.1155

                     25                     26                     27
                      B                      B                      A
 Frequencies --   1337.0431              1352.6127              1362.1130
 Red. masses --      4.3956                 1.5967                 1.2781
 Frc consts  --      4.6298                 1.7211                 1.3971
 IR Inten    --    167.2072                38.8527                 0.0099

                     28                     29                     30
                      A                      B                      B
 Frequencies --   1463.5548              1464.0147              1495.0226
 Red. masses --      1.0834                 1.0936                 1.0825
 Frc consts  --      1.3673                 1.3810                 1.4256
 IR Inten    --      1.7322                11.6665                 5.8113

                     31                     32                     33
                      A                      A                      B
 Frequencies --   1505.5871              3044.5605              3049.9265
 Red. masses --      1.0972                 1.0672                 1.0604
 Frc consts  --      1.4653                 5.8286                 5.8114
 IR Inten    --      1.8526                12.6326                21.9186

                     34                     35                     36
                      A                      B                      A
 Frequencies --   3080.9431              3081.2022              3094.3162
 Red. masses --      1.0642                 1.0626                 1.0918
 Frc consts  --      5.9517                 5.9437                 6.1592
 IR Inten    --      6.0918                 0.7389                11.3802

                     37                     38                     39
                      B                      A                      B
 Frequencies --   3100.4233              3149.0087              3149.7985
 Red. masses --      1.1004                 1.1080                 1.1083
 Frc consts  --      6.2322                 6.4732                 6.4785
 IR Inten    --     21.1445                 0.4265                 1.9434

 - Thermochemistry -
 -------------------
 Temperature   298.150 Kelvin.  Pressure   1.00000 Atm.
 Atom     1 has atomic number  8 and mass  15.99491

 Molecular mass:   120.02450 amu.
 Principal axes and moments of inertia in atomic units:
                           1         2         3
     Eigenvalues --   482.31847 895.66926 965.62270
           X            0.00000   0.93539   0.35362
           Y            0.00000  -0.35362   0.93539
           Z            1.00000   0.00000  -0.00000
 This molecule is an asymmetric top.
 Rotational symmetry number  2.
 Warning -- assumption of classical behavior for rotation
           may cause significant error
 Rotational temperatures (Kelvin)      0.17958     0.09670     0.08970
 Rotational constants (GHZ):           3.74180     2.01496     1.86899
 Zero-point vibrational energy     321945.3 (Joules/Mol)
                                   76.94677 (Kcal/Mol)
 Warning -- explicit consideration of   8 degrees of freedom as
           vibrations may cause significant error
 Vibrational temperatures:     64.56   331.33   445.60   515.94   531.69
          (Kelvin)            614.52   734.63   813.00   926.39  1033.07
                             1156.32  1265.19  1305.31  1312.58  1408.99
                             1435.01  1498.82  1559.58  1610.97  1675.54
                             1751.96  1763.48  1848.60  1870.25  1923.71
                             1946.11  1959.78  2105.73  2106.39  2151.00
                             2166.20  4380.44  4388.16  4432.79  4433.16
                             4452.03  4460.82  4530.72  4531.86

 Zero-point correction=                           0.122622 (Hartree/Particle)
 Thermal correction to Energy=                    0.129359
 Thermal correction to Enthalpy=                  0.130303
 Thermal correction to Gibbs Free Energy=         0.091868
 Sum of electronic and zero-point Energies=           -705.902425
 Sum of electronic and thermal Energies=              -705.895689
 Sum of electronic and thermal Enthalpies=            -705.894745
 Sum of electronic and thermal Free Energies=         -705.933179

                     E (Thermal)             CV                S
                      KCal/Mol        Cal/Mol-Kelvin    Cal/Mol-Kelvin
 Total                   81.174             25.394             80.892
 Electronic               0.000              0.000              0.000
 Translational            0.889              2.981             40.262
 Rotational               0.889              2.981             26.147
 Vibrational             79.396             19.432             14.483
 Vibration     1          0.595              1.979              5.032
 Vibration     2          0.652              1.795              1.877
 Vibration     3          0.699              1.655              1.364
 Vibration     4          0.733              1.558              1.128
 Vibration     5          0.742              1.535              1.082
 Vibration     6          0.789              1.411              0.868
 Vibration     7          0.866              1.227              0.632
 Vibration     8          0.921              1.107              0.514

 Optimization completed.
    -- Stationary point found.
 Normal termination of Gaussian 16 at Tue Mar  1 20:57:43 2022.
