 Gaussian 16, Revision B.01,

 ---------------------------------------
 # b3lyp/gen opt freq CPHF(Grid=OneStep)
 ---------------------------------------

 ------------------------
 sulfolane, B3LYP/pcseg-2
 ------------------------
 Symbolic Z-matrix:
 Charge =  0 Multiplicity = 1

 SCF Done:  E(RB3LYP) =  -706.025047656     A.U. after   13 cycles
 Optimization completed.
    -- Stationary point found.
 Normal termination of Gaussian 16 at Fri Sep 29 17:10:29 2023.

 ------------------------------------------------------------------
 #N Geom=AllCheck Guess=TCheck SCRF=Check GenChk RB3LYP/ChkBas Freq
 ------------------------------------------------------------------

 Structure from the checkpoint file:  "sulfolane.chk"
 ------------------------
 sulfolane, B3LYP/pcseg-2
 ------------------------
 Charge =  0 Multiplicity = 1

 SCF Done:  E(RB3LYP) =  -706.025047656     A.U. after    1 cycles

  Exact polarizability:  68.220  -0.842  64.628  -0.000  -0.000  75.157
 Approx polarizability:  96.292  -0.073 105.874   0.000  -0.000 104.560

                      1                      2                      3
                      B                      A                      A
 Frequencies --     44.8768               230.2847               309.7085
 Red. masses --      2.9283                 2.4910                 2.3002
 Frc consts  --      0.0035                 0.0778                 0.1300
 IR Inten    --      2.6168                 0.0337                 0.0015

                      4                      5                      6
                      B                      A                      B
 Frequencies --    358.5966               369.5448               427.1112
 Red. masses --      2.8809                 7.0480                 5.5632
 Frc consts  --      0.2183                 0.5671                 0.5979
 IR Inten    --      0.6550                11.4472                21.7227

                      7                      8                      9
                      B                      A                      A
 Frequencies --    510.5983               565.0681               643.8751
 Red. masses --      2.2217                 6.8244                 4.2378
 Frc consts  --      0.3413                 1.2839                 1.0351
 IR Inten    --      7.8994                19.7912                11.8843

                     10                     11                     12
                      B                      A                      A
 Frequencies --    718.0169               803.6905               879.3581
 Red. masses --      2.8673                 1.4455                 2.6654
 Frc consts  --      0.8709                 0.5501                 1.2144
 IR Inten    --     56.3850                 1.0413                 0.2173

                     13                     14                     15
                      B                      B                      B
 Frequencies --    907.2406               912.2862               979.2974
 Red. masses --      1.8609                 1.9067                 1.7959
 Frc consts  --      0.9025                 0.9350                 1.0147
 IR Inten    --      2.8769                18.8641                 0.0803

                     16                     17                     18
                      A                      A                      B
 Frequencies --    997.3764              1041.7321              1083.9649
 Red. masses --      1.3370                 1.9747                 1.1056
 Frc consts  --      0.7836                 1.2626                 0.7654
 IR Inten    --      0.0243                 1.9586                 2.6320

                     19                     20                     21
                      A                      A                      B
 Frequencies --   1119.6786              1164.5656              1217.6770
 Red. masses --      2.8421                 1.9950                 1.5026
 Frc consts  --      2.0993                 1.5942                 1.3127
 IR Inten    --     86.8283               110.0458                 1.2868

                     22                     23                     24
                      A                      B                      A
 Frequencies --   1225.6791              1284.8419              1299.8907
 Red. masses --      1.4723                 1.3040                 1.3869
 Frc consts  --      1.3031                 1.2683                 1.3808
 IR Inten    --      0.0186                22.7527                23.1142

                     25                     26                     27
                      B                      B                      A
 Frequencies --   1337.0432              1352.6130              1362.1130
 Red. masses --      4.3963                 1.5966                 1.2781
 Frc consts  --      4.6305                 1.7210                 1.3972
 IR Inten    --    167.2239                38.8372                 0.0099

                     28                     29                     30
                      A                      B                      B
 Frequencies --   1463.5548              1464.0209              1495.0210
 Red. masses --      1.0834                 1.0936                 1.0825
 Frc consts  --      1.3673                 1.3810                 1.4256
 IR Inten    --      1.7326                11.6705                 5.8123

                     31                     32                     33
                      A                      A                      B
 Frequencies --   1505.5905              3044.5588              3049.9225
 Red. masses --      1.0972                 1.0672                 1.0604
 Frc consts  --      1.4653                 5.8286                 5.8114
 IR Inten    --      1.8533                12.6309                21.9149

                     34                     35                     36
                      A                      B                      A
 Frequencies --   3080.9400              3081.1983              3094.3098
 Red. masses --      1.0642                 1.0626                 1.0918
 Frc consts  --      5.9517                 5.9437                 6.1592
 IR Inten    --      6.0908                 0.7375                11.3800

                     37                     38                     39
                      B                      A                      B
 Frequencies --   3100.4187              3149.0066              3149.7973
 Red. masses --      1.1004                 1.1080                 1.1083
 Frc consts  --      6.2322                 6.4732                 6.4785
 IR Inten    --     21.1476                 0.4265                 1.9443

 - Thermochemistry -
 -------------------
 Temperature   298.150 Kelvin.  Pressure   1.00000 Atm.
 Atom     1 has atomic number  8 and mass  15.99491

 Molecular mass:   120.02450 amu.
 Principal axes and moments of inertia in atomic units:
                           1         2         3
     Eigenvalues --   482.31836 895.66933 965.62271
           X            0.00000   0.93539   0.35362
           Y            0.00000  -0.35362   0.93539
           Z            1.00000   0.00000  -0.00000
 This molecule is an asymmetric top.
 Rotational symmetry number  2.
 Warning -- assumption of classical behavior for rotation
           may cause significant error
 Rotational temperatures (Kelvin)      0.17958     0.09670     0.08970
 Rotational constants (GHZ):           3.74180     2.01496     1.86899
 Zero-point vibrational energy     321945.4 (Joules/Mol)
                                   76.94680 (Kcal/Mol)
 Warning -- explicit consideration of   8 degrees of freedom as
           vibrations may cause significant error
 Vibrational temperatures:     64.57   331.33   445.60   515.94   531.69
          (Kelvin)            614.52   734.64   813.01   926.39  1033.07
                             1156.33  1265.20  1305.32  1312.58  1408.99
                             1435.00  1498.82  1559.58  1610.97  1675.55
                             1751.97  1763.48  1848.60  1870.25  1923.71
                             1946.11  1959.78  2105.73  2106.40  2151.00
                             2166.21  4380.44  4388.16  4432.79  4433.16
                             4452.02  4460.81  4530.72  4531.86

 Zero-point correction=                           0.122623 (Hartree/Particle)
 Thermal correction to Energy=                    0.129359
 Thermal correction to Enthalpy=                  0.130303
 Thermal correction to Gibbs Free Energy=         0.091869
 Sum of electronic and zero-point Energies=           -705.902425
 Sum of electronic and thermal Energies=              -705.895689
 Sum of electronic and thermal Enthalpies=            -705.894745
 Sum of electronic and thermal Free Energies=         -705.933179

                     E (Thermal)             CV                S
                      KCal/Mol        Cal/Mol-Kelvin    Cal/Mol-Kelvin
 Total                   81.174             25.394             80.892
 Electronic               0.000              0.000              0.000
 Translational            0.889              2.981             40.262
 Rotational               0.889              2.981             26.147
 Vibrational             79.396             19.432             14.482
 Vibration     1          0.595              1.979              5.031
 Vibration     2          0.652              1.795              1.877
 Vibration     3          0.699              1.655              1.364
 Vibration     4          0.733              1.558              1.128
 Vibration     5          0.742              1.535              1.082
 Vibration     6          0.789              1.411              0.868
 Vibration     7          0.866              1.227              0.632
 Vibration     8          0.921              1.107              0.514

 Optimization completed.
    -- Stationary point found.
 Normal termination of Gaussian 16 at Fri Sep 29 17:30:41 2023.
 Gaussian 16:  ES64L-G16RevB.01 20-Dec-2017

 ---------------------------------
 # rohf/gen geom=check guess=check
 ---------------------------------

 ---------------------------
 sulfolane, ROHF/cc-pVTZ-F12
 ---------------------------
 Structure from the checkpoint file:  "sulfolane.chk"
 Charge =  0 Multiplicity = 1

                         Standard orientation:
 ---------------------------------------------------------------------
 Center     Atomic      Atomic             Coordinates (Angstroms)
 Number     Number       Type             X           Y           Z
 ---------------------------------------------------------------------
      1          8           0       -0.000000    1.254438    1.507568
      2         16           0        0.000000    0.000000    0.782998
      3          8           0        0.000000   -1.254438    1.507568
      4          6           0        1.354740    0.005229   -0.441370
      5          6           0       -1.354740   -0.005229   -0.441370
      6          6           0        0.692793   -0.336415   -1.776112
      7          6           0       -0.692793    0.336415   -1.776112
      8          1           0        2.099523   -0.711311   -0.106279
      9          1           0        1.771744    1.010318   -0.430930
     10          1           0       -1.771744   -1.010318   -0.430930
     11          1           0       -2.099523    0.711311   -0.106279
     12          1           0        1.302878    0.000467   -2.613268
     13          1           0        0.579042   -1.417954   -1.869152
     14          1           0       -0.579042    1.417954   -1.869152
     15          1           0       -1.302878   -0.000467   -2.613268
 ---------------------------------------------------------------------

 SCF Done:  E(ROHF) =  -703.515196590     A.U. after   11 cycles

 The electronic state is 1-A.
 Alpha  occ. eigenvalues --  -92.15399 -20.53924 -20.53922 -11.27354 -11.27352
 Alpha  occ. eigenvalues --  -11.26222 -11.26163  -9.12630  -6.81151  -6.81091
 Alpha  occ. eigenvalues --   -6.81084  -1.44189  -1.33180  -1.14762  -1.02560
 Alpha  occ. eigenvalues --   -0.96881  -0.83656  -0.79801  -0.69838  -0.69036
 Alpha  occ. eigenvalues --   -0.63988  -0.63637  -0.62008  -0.61497  -0.56127
 Alpha  occ. eigenvalues --   -0.54038  -0.52608  -0.52125  -0.48676  -0.48031
 Alpha  occ. eigenvalues --   -0.46615  -0.42153
 Alpha virt. eigenvalues --    0.03388   0.04242   0.04885   0.05052   0.07407
 Alpha virt. eigenvalues --    0.07649   0.08129   0.08657   0.09144   0.11120
 Alpha virt. eigenvalues --    0.11498   0.11530   0.12205   0.12503   0.13588

 Mulliken charges and spin densities:
               1          2
     1  O   -0.827370   0.000000
     2  S    1.827325   0.000000
     3  O   -0.827370   0.000000
     4  C   -0.361385   0.000000
     5  C   -0.361385   0.000000
     6  C   -0.142436   0.000000
     7  C   -0.142436   0.000000
     8  H    0.102497   0.000000
     9  H    0.137934   0.000000
    10  H    0.137934   0.000000
    11  H    0.102497   0.000000
    12  H    0.075322   0.000000
    13  H    0.101775   0.000000
    14  H    0.101775   0.000000
    15  H    0.075322   0.000000
 Sum of Mulliken charges =  -0.00000   0.00000

 Dipole moment (field-independent basis, Debye):
    X=              0.0000    Y=             -0.0000    Z=             -5.8348  Tot=              5.8348
 Quadrupole moment (field-independent basis, Debye-Ang):
   XX=            -43.5525   YY=            -55.0364   ZZ=            -54.9818
   XY=             -0.0240   XZ=              0.0000   YZ=             -0.0000

 Normal termination of Gaussian 16 at Fri Sep 29 17:37:14 2023.
