 Gaussian 16, Revision B.01,

 ---------------------------------------
 # b3lyp/gen opt freq CPHF(Grid=OneStep)
 ---------------------------------------

 -------------------------
 term-butyl, B3LYP/pcseg-2
 -------------------------
 Symbolic Z-matrix:
 Charge =  0 Multiplicity = 2

 SCF Done:  E(UB3LYP) =  -157.864658489     A.U. after   13 cycles
 SCF Done:  E(UB3LYP) =  -157.864659251     A.U. after    7 cycles
 Optimization completed.
    -- Stationary point found.
 Normal termination of Gaussian 16 at Sat Sep 30 15:09:16 2023.

 ------------------------------------------------------------------
 #N Geom=AllCheck Guess=TCheck SCRF=Check GenChk UB3LYP/ChkBas Freq
 ------------------------------------------------------------------

 Structure from the checkpoint file:  "tBu.chk"
 -------------------------
 term-butyl, B3LYP/pcseg-2
 -------------------------
 Charge =  0 Multiplicity = 2

 SCF Done:  E(UB3LYP) =  -157.864659251     A.U. after    1 cycles

  Exact polarizability:  56.231   0.000  56.230   0.000   0.000  45.962
 Approx polarizability:  70.851  -0.000  70.851   0.000   0.000  65.635

                      1                      2                      3
                      E                      E                     A2
 Frequencies --    133.7375               133.7375               136.1270
 Red. masses --      1.0721                 1.0721                 1.0080
 Frc consts  --      0.0113                 0.0113                 0.0110
 IR Inten    --      0.0287                 0.0287                 0.0000

                      4                      5                      6
                     A1                      E                      E
 Frequencies --    263.2153               380.1751               380.1752
 Red. masses --      2.3015                 2.0755                 2.0755
 Frc consts  --      0.0939                 0.1767                 0.1767
 IR Inten    --      3.1877                 0.1492                 0.1492

                      7                      8                      9
                     A1                      E                      E
 Frequencies --    758.2035               937.0268               937.0268
 Red. masses --      3.6111                 1.2539                 1.2539
 Frc consts  --      1.2231                 0.6487                 0.6487
 IR Inten    --      1.7384                 0.5760                 0.5760

                     10                     11                     12
                     A2                      E                      E
 Frequencies --    972.1588              1007.7713              1007.7716
 Red. masses --      1.2174                 1.6414                 1.6414
 Frc consts  --      0.6779                 0.9822                 0.9822
 IR Inten    --      0.0000                 1.7796                 1.7796

                     13                     14                     15
                     A1                      E                      E
 Frequencies --   1096.6228              1293.0796              1293.0800
 Red. masses --      1.6206                 3.0098                 3.0098
 Frc consts  --      1.1482                 2.9651                 2.9651
 IR Inten    --      0.5370                 6.0980                 6.0980

                     16                     17                     18
                      E                      E                     A1
 Frequencies --   1396.0729              1396.0729              1423.2139
 Red. masses --      1.2521                 1.2521                 1.2011
 Frc consts  --      1.4378                 1.4378                 1.4334
 IR Inten    --      3.4527                 3.4526                 2.3985

                     19                     20                     21
                     A2                      E                      E
 Frequencies --   1465.9611              1469.6577              1469.6577
 Red. masses --      1.0432                 1.0638                 1.0638
 Frc consts  --      1.3209                 1.3538                 1.3538
 IR Inten    --      0.0000                 3.1928                 3.1928

                     22                     23                     24
                     A1                      E                      E
 Frequencies --   1487.4934              1489.5829              1489.5830
 Red. masses --      1.0594                 1.0660                 1.0660
 Frc consts  --      1.3811                 1.3936                 1.3936
 IR Inten    --     19.4858                 3.2101                 3.2101

                     25                     26                     27
                      E                      E                     A1
 Frequencies --   2916.4722              2916.4722              2924.8728
 Red. masses --      1.0628                 1.0628                 1.0659
 Frc consts  --      5.3261                 5.3261                 5.3728
 IR Inten    --     37.9225                37.9233                99.3877

                     28                     29                     30
                      E                      E                     A1
 Frequencies --   3032.9572              3032.9572              3035.7206
 Red. masses --      1.0653                 1.0653                 1.0635
 Frc consts  --      5.7736                 5.7736                 5.7746
 IR Inten    --     23.3952                23.3950                35.0832

                     31                     32                     33
                     A2                      E                      E
 Frequencies --   3075.7208              3080.1993              3080.1993
 Red. masses --      1.1026                 1.1014                 1.1014
 Frc consts  --      6.1458                 6.1570                 6.1570
 IR Inten    --      0.0000                46.5417                46.5431

 - Thermochemistry -
 -------------------
 Temperature   298.150 Kelvin.  Pressure   1.00000 Atm.
 Atom     1 has atomic number  6 and mass  12.00000

 Molecular mass:    57.07043 amu.
 Principal axes and moments of inertia in atomic units:
                           1         2         3
     Eigenvalues --   224.91447 224.91447 414.76281
           X            0.73414   0.67900   0.00000
           Y           -0.67900   0.73414   0.00000
           Z            0.00000  -0.00000   1.00000
 This molecule is an oblate symmetric top.
 Rotational symmetry number  3.
 Rotational temperatures (Kelvin)      0.38510     0.38510     0.20883
 Rotational constants (GHZ):           8.02412     8.02412     4.35126
 Zero-point vibrational energy     304526.0 (Joules/Mol)
                                   72.78347 (Kcal/Mol)
 Warning -- explicit consideration of   6 degrees of freedom as
           vibrations may cause significant error
 Vibrational temperatures:    192.42   192.42   195.86   378.71   546.99
          (Kelvin)            546.99  1090.89  1348.17  1348.17  1398.72
                             1449.96  1449.96  1577.80  1860.45  1860.45
                             2008.64  2008.64  2047.69  2109.19  2114.51
                             2114.51  2140.17  2143.18  2143.18  4196.15
                             4196.15  4208.24  4363.75  4363.75  4367.72
                             4425.28  4431.72  4431.72

 Zero-point correction=                           0.115988 (Hartree/Particle)
 Thermal correction to Energy=                    0.122359
 Thermal correction to Enthalpy=                  0.123303
 Thermal correction to Gibbs Free Energy=         0.087586
 Sum of electronic and zero-point Energies=           -157.748671
 Sum of electronic and thermal Energies=              -157.742300
 Sum of electronic and thermal Enthalpies=            -157.741356
 Sum of electronic and thermal Free Energies=         -157.777073

                     E (Thermal)             CV                S
                      KCal/Mol        Cal/Mol-Kelvin    Cal/Mol-Kelvin
 Total                   76.781             20.639             75.173
 Electronic               0.000              0.000              1.377
 Translational            0.889              2.981             38.046
 Rotational               0.889              2.981             22.371
 Vibrational             75.004             14.677             13.379
 Vibration     1          0.613              1.920              2.892
 Vibration     2          0.613              1.920              2.892
 Vibration     3          0.614              1.917              2.858
 Vibration     4          0.670              1.740              1.640
 Vibration     5          0.750              1.512              1.038
 Vibration     6          0.750              1.512              1.038

 Optimization completed.
    -- Stationary point found.
 Normal termination of Gaussian 16 at Sat Sep 30 15:20:08 2023.
 Gaussian 16:  ES64L-G16RevB.01 20-Dec-2017

 ---------------------------------
 # rohf/gen geom=check guess=check
 ---------------------------------

 ----------------------------
 term-butyl, ROHF/cc-pVTZ-F12
 ----------------------------
 Structure from the checkpoint file:  "tBu.chk"
 Charge =  0 Multiplicity = 2

                         Standard orientation:
 ---------------------------------------------------------------------
 Center     Atomic      Atomic             Coordinates (Angstroms)
 Number     Number       Type             X           Y           Z
 ---------------------------------------------------------------------
      1          6           0        0.000000    0.000000    0.150014
      2          6           0        0.000000    1.482300   -0.014624
      3          6           0        1.283709   -0.741150   -0.014624
      4          6           0       -1.283709   -0.741150   -0.014624
      5          1           0        0.000000    1.777003   -1.077176
      6          1           0        1.538930   -0.888502   -1.077176
      7          1           0       -1.538930   -0.888502   -1.077176
      8          1           0       -0.884838    1.940245    0.432446
      9          1           0        0.884838    1.940245    0.432446
     10          1           0        2.122721   -0.203830    0.432446
     11          1           0        1.237882   -1.736415    0.432446
     12          1           0       -1.237882   -1.736415    0.432446
     13          1           0       -2.122721   -0.203830    0.432446
 ---------------------------------------------------------------------

 SCF Done:  E(ROHF) =  -156.734922066     A.U. after   15 cycles

 The electronic state is 2-A1.
 Alpha  occ. eigenvalues --  -11.21208 -11.21167 -11.21167 -11.21078  -1.06216
 Alpha  occ. eigenvalues --   -0.93424  -0.93424  -0.71538  -0.59709  -0.59709
 Alpha  occ. eigenvalues --   -0.58005  -0.52892  -0.52892  -0.51332  -0.47917
 Alpha  occ. eigenvalues --   -0.47917  -0.04445
 Alpha virt. eigenvalues --    0.05180   0.05180   0.05388   0.06729   0.08646
 Alpha virt. eigenvalues --    0.08646   0.09511   0.09602   0.09602   0.12014
 Alpha virt. eigenvalues --    0.14275   0.14275   0.14370   0.18375   0.18375

 Mulliken charges and spin densities:
               1          2
     1  C    0.145305   0.899293
     2  C   -0.330076   0.005201
     3  C   -0.330076   0.005201
     4  C   -0.330076   0.005201
     5  H    0.088308   0.024308
     6  H    0.088308   0.024308
     7  H    0.088308   0.024308
     8  H    0.096667   0.002030
     9  H    0.096667   0.002030
    10  H    0.096667   0.002030
    11  H    0.096667   0.002030
    12  H    0.096667   0.002030
    13  H    0.096667   0.002030
 Sum of Mulliken charges =  -0.00000   1.00000

 Dipole moment (field-independent basis, Debye):
    X=              0.0000    Y=             -0.0000    Z=             -0.1741  Tot=              0.1741
 Quadrupole moment (field-independent basis, Debye-Ang):
   XX=            -27.8323   YY=            -27.8323   ZZ=            -28.3817
   XY=             -0.0000   XZ=             -0.0000   YZ=             -0.0000

 Normal termination of Gaussian 16 at Sat Sep 30 15:21:09 2023.
