 Gaussian 16, Revision B.01,
 Gaussian 16:  ES64L-G16RevB.01 20-Dec-2017

 -------------------------------
 # b3lyp/gen opt freq symm=loose
 -------------------------------

 -------------------------
 term-butyl, B3LYP/pcseg-2
 -------------------------
 Symbolic Z-matrix:
 Charge =  0 Multiplicity = 2

 SCF Done:  E(UB3LYP) =  -157.864581094     A.U. after   13 cycles
 SCF Done:  E(UB3LYP) =  -157.864658490     A.U. after    8 cycles
 Optimization completed.
    -- Stationary point found.
 Normal termination of Gaussian 16 at Thu Jun 16 11:09:11 2022.

 ------------------------------------------------------------------
 #N Geom=AllCheck Guess=TCheck SCRF=Check GenChk UB3LYP/ChkBas Freq
 ------------------------------------------------------------------

 Structure from the checkpoint file:  "/wrk/irikura/Gau-19468.chk"
 -------------------------
 term-butyl, B3LYP/pcseg-2
 -------------------------
 Charge =  0 Multiplicity = 2

                         Standard orientation:
 ---------------------------------------------------------------------
 Center     Atomic      Atomic             Coordinates (Angstroms)
 Number     Number       Type             X           Y           Z
 ---------------------------------------------------------------------
      1          6           0        0.000000    0.000000    0.150652
      2          6           0        0.000000    1.481698   -0.014798
      3          6           0        1.283188   -0.740849   -0.014798
      4          6           0       -1.283188   -0.740849   -0.014798
      5          1           0        0.000000    1.776033   -1.077393
      6          1           0        1.538090   -0.888017   -1.077393
      7          1           0       -1.538090   -0.888017   -1.077393
      8          1           0       -0.884723    1.939895    0.432438
      9          1           0        0.884723    1.939895    0.432438
     10          1           0        2.122359   -0.203755    0.432438
     11          1           0        1.237637   -1.736140    0.432438
     12          1           0       -1.237637   -1.736140    0.432438
     13          1           0       -2.122359   -0.203755    0.432438
 ---------------------------------------------------------------------

 SCF Done:  E(UB3LYP) =  -157.864658490     A.U. after    1 cycles

 The electronic state is 2-A1.
 Alpha  occ. eigenvalues --  -10.17612 -10.16089 -10.16089 -10.16088  -0.80490
 Alpha  occ. eigenvalues --   -0.69269  -0.69269  -0.53823  -0.44773  -0.44304
 Alpha  occ. eigenvalues --   -0.44304  -0.38882  -0.38882  -0.36973  -0.34772
 Alpha  occ. eigenvalues --   -0.34772  -0.17493
 Alpha virt. eigenvalues --    0.00966   0.04911   0.04911   0.06849   0.07318
 Alpha virt. eigenvalues --    0.07318   0.10532   0.10532   0.10853   0.13500
 Alpha virt. eigenvalues --    0.14743   0.14743   0.15579   0.19153   0.19153

  Beta  occ. eigenvalues --  -10.16197 -10.16172 -10.16172 -10.16145  -0.78830
  Beta  occ. eigenvalues --   -0.69042  -0.69042  -0.51983  -0.43929  -0.43929
  Beta  occ. eigenvalues --   -0.42824  -0.38270  -0.38270  -0.36862  -0.34303
  Beta  occ. eigenvalues --   -0.34303
  Beta virt. eigenvalues --   -0.04011   0.01093   0.04956   0.04956   0.07236
  Beta virt. eigenvalues --    0.07373   0.07373   0.10658   0.10658   0.11239
  Beta virt. eigenvalues --    0.13494   0.14944   0.14944   0.16149   0.19237

 Mulliken charges and spin densities:
               1          2
     1  C   -0.020070   0.901800
     2  C   -0.065667  -0.060203
     3  C   -0.065667  -0.060203
     4  C   -0.065667  -0.060203
     5  H    0.018785   0.071398
     6  H    0.018785   0.071398
     7  H    0.018785   0.071398
     8  H    0.026786   0.010769
     9  H    0.026786   0.010769
    10  H    0.026786   0.010769
    11  H    0.026786   0.010769
    12  H    0.026786   0.010769
    13  H    0.026786   0.010769
 Sum of Mulliken charges =  -0.00000   1.00000

 Dipole moment (field-independent basis, Debye):
    X=              0.0000    Y=             -0.0000    Z=             -0.1933  Tot=              0.1933
 Quadrupole moment (field-independent basis, Debye-Ang):
   XX=            -27.8974   YY=            -27.8974   ZZ=            -28.6391
   XY=             -0.0000   XZ=             -0.0000   YZ=             -0.0000

  Exact polarizability:  56.223   0.000  56.223   0.000  -0.000  45.970
 Approx polarizability:  70.843  -0.000  70.843  -0.000  -0.000  65.651

                      1                      2                      3
                      E                      E                     A2
 Frequencies --    134.6248               134.6249               137.1180
 Red. masses --      1.0723                 1.0723                 1.0080
 Frc consts  --      0.0115                 0.0115                 0.0112
 IR Inten    --      0.0287                 0.0287                 0.0000

                      4                      5                      6
                     A1                      E                      E
 Frequencies --    263.1148               380.3514               380.3523
 Red. masses --      2.3000                 2.0746                 2.0746
 Frc consts  --      0.0938                 0.1768                 0.1768
 IR Inten    --      3.1770                 0.1485                 0.1486

                      7                      8                      9
                     A1                      E                      E
 Frequencies --    759.3361               937.2263               937.2264
 Red. masses --      3.6070                 1.2534                 1.2534
 Frc consts  --      1.2254                 0.6487                 0.6487
 IR Inten    --      1.7488                 0.5738                 0.5738

                     10                     11                     12
                     A2                      E                      E
 Frequencies --    972.4124              1008.4973              1008.4976
 Red. masses --      1.2176                 1.6400                 1.6400
 Frc consts  --      0.6784                 0.9828                 0.9828
 IR Inten    --      0.0000                 1.7882                 1.7880

                     13                     14                     15
                     A1                      E                      E
 Frequencies --   1097.1173              1293.9193              1293.9199
 Red. masses --      1.6213                 3.0015                 3.0015
 Frc consts  --      1.1498                 2.9607                 2.9607
 IR Inten    --      0.5560                 6.0505                 6.0500

                     16                     17                     18
                      E                      E                     A1
 Frequencies --   1396.4013              1396.4013              1423.4607
 Red. masses --      1.2540                 1.2540                 1.2014
 Frc consts  --      1.4406                 1.4406                 1.4342
 IR Inten    --      3.5031                 3.5034                 2.4301

                     19                     20                     21
                     A2                      E                      E
 Frequencies --   1465.7990              1469.8871              1469.8872
 Red. masses --      1.0431                 1.0638                 1.0638
 Frc consts  --      1.3205                 1.3542                 1.3542
 IR Inten    --      0.0000                 3.2401                 3.2405

                     22                     23                     24
                     A1                      E                      E
 Frequencies --   1487.7747              1489.5487              1489.5489
 Red. masses --      1.0595                 1.0668                 1.0668
 Frc consts  --      1.3818                 1.3945                 1.3945
 IR Inten    --     19.4786                 3.1636                 3.1635

                     25                     26                     27
                      E                      E                     A1
 Frequencies --   2916.9124              2916.9124              2925.3619
 Red. masses --      1.0627                 1.0627                 1.0658
 Frc consts  --      5.3271                 5.3271                 5.3741
 IR Inten    --     38.0181                38.0207                99.1911

                     28                     29                     30
                      E                      E                     A1
 Frequencies --   3032.3362              3032.3362              3035.1061
 Red. masses --      1.0654                 1.0654                 1.0637
 Frc consts  --      5.7721                 5.7721                 5.7729
 IR Inten    --     23.2863                23.2855                35.2754

                     31                     32                     33
                     A2                      E                      E
 Frequencies --   3074.7975              3079.3115              3079.3115
 Red. masses --      1.1026                 1.1014                 1.1014
 Frc consts  --      6.1419                 6.1531                 6.1531
 IR Inten    --      0.0000                46.6914                46.6868

 - Thermochemistry -
 -------------------
 Temperature   298.150 Kelvin.  Pressure   1.00000 Atm.
 Atom     1 has atomic number  6 and mass  12.00000

 Molecular mass:    57.07043 amu.
 Principal axes and moments of inertia in atomic units:
                           1         2         3
     Eigenvalues --   224.77815 224.77815 414.46275
           X            0.72777   0.68582   0.00000
           Y           -0.68582   0.72777   0.00000
           Z            0.00000  -0.00000   1.00000
 This molecule is an oblate symmetric top.
 Rotational symmetry number  3.
 Rotational temperatures (Kelvin)      0.38533     0.38533     0.20898
 Rotational constants (GHZ):           8.02899     8.02899     4.35441
 Zero-point vibrational energy     304565.8 (Joules/Mol)
                                   72.79298 (Kcal/Mol)
 Warning -- explicit consideration of   6 degrees of freedom as
           vibrations may cause significant error
 Vibrational temperatures:    193.70   193.70   197.28   378.56   547.24
          (Kelvin)            547.24  1092.52  1348.46  1348.46  1399.08
                             1451.00  1451.00  1578.51  1861.66  1861.66
                             2009.11  2009.11  2048.04  2108.96  2114.84
                             2114.84  2140.58  2143.13  2143.13  4196.79
                             4196.79  4208.94  4362.86  4362.86  4366.84
                             4423.95  4430.44  4430.44

 Zero-point correction=                           0.116003 (Hartree/Particle)
 Thermal correction to Energy=                    0.122368
 Thermal correction to Enthalpy=                  0.123312
 Thermal correction to Gibbs Free Energy=         0.087616
 Sum of electronic and zero-point Energies=           -157.748655
 Sum of electronic and thermal Energies=              -157.742290
 Sum of electronic and thermal Enthalpies=            -157.741346
 Sum of electronic and thermal Free Energies=         -157.777042

                     E (Thermal)             CV                S
                      KCal/Mol        Cal/Mol-Kelvin    Cal/Mol-Kelvin
 Total                   76.787             20.629             75.129
 Electronic               0.000              0.000              1.377
 Translational            0.889              2.981             38.046
 Rotational               0.889              2.981             22.369
 Vibrational             75.010             14.668             13.336
 Vibration     1          0.613              1.919              2.879
 Vibration     2          0.613              1.919              2.879
 Vibration     3          0.614              1.916              2.844
 Vibration     4          0.670              1.740              1.641
 Vibration     5          0.750              1.512              1.038
 Vibration     6          0.750              1.512              1.038

                           ! Non-Optimized Parameters !
 Normal termination of Gaussian 16 at Thu Jun 16 11:11:18 2022.
