 Gaussian 16, Revision B.01,
 Gaussian 16:  ES64L-G16RevB.01 20-Dec-2017

 --------------------
 # b3lyp/gen opt freq
 --------------------

 ---------------------------
 t-butylamine, B3LYP/pcseg-2
 ---------------------------
 Symbolic Z-matrix:
 Charge =  0 Multiplicity = 1

 SCF Done:  E(RB3LYP) =  -213.899682031     A.U. after   11 cycles
 SCF Done:  E(RB3LYP) =  -213.899891306     A.U. after    9 cycles
 SCF Done:  E(RB3LYP) =  -213.899904989     A.U. after    7 cycles
 SCF Done:  E(RB3LYP) =  -213.899906742     A.U. after    7 cycles
 Optimization completed.
    -- Stationary point found.
 Normal termination of Gaussian 16 at Fri Jun 17 18:17:42 2022.

 ------------------------------------------------------------------
 #N Geom=AllCheck Guess=TCheck SCRF=Check GenChk RB3LYP/ChkBas Freq
 ------------------------------------------------------------------

 Structure from the checkpoint file:  "/wrk/irikura/Gau-13993.chk"
 ---------------------------
 t-butylamine, B3LYP/pcseg-2
 ---------------------------
 Charge =  0 Multiplicity = 1

                         Standard orientation:
 ---------------------------------------------------------------------
 Center     Atomic      Atomic             Coordinates (Angstroms)
 Number     Number       Type             X           Y           Z
 ---------------------------------------------------------------------
      1          7           0       -0.544606    1.387175    0.000000
      2          6           0       -0.011584    0.011520    0.000000
      3          6           0        1.527709   -0.018338    0.000000
      4          6           0       -0.544606   -0.686486    1.255619
      5          6           0       -0.544606   -0.686486   -1.255619
      6          1           0       -0.219648    1.895572    0.814266
      7          1           0       -0.219648    1.895572   -0.814266
      8          1           0        1.911157   -1.040912   -0.000000
      9          1           0        1.923212    0.487747   -0.882959
     10          1           0        1.923212    0.487747    0.882959
     11          1           0       -0.204464   -1.721674    1.301604
     12          1           0       -0.195254   -0.181135    2.158838
     13          1           0       -1.634046   -0.675792    1.263051
     14          1           0       -0.204464   -1.721674   -1.301604
     15          1           0       -0.195254   -0.181135   -2.158838
     16          1           0       -1.634046   -0.675792   -1.263051
 ---------------------------------------------------------------------

 SCF Done:  E(RB3LYP) =  -213.899906742     A.U. after    1 cycles

 The electronic state is 1-A'.
 Alpha  occ. eigenvalues --  -14.28995 -10.20751 -10.15827 -10.15594 -10.15593
 Alpha  occ. eigenvalues --   -0.89194  -0.76459  -0.68888  -0.68841  -0.55316
 Alpha  occ. eigenvalues --   -0.48818  -0.46664  -0.44298  -0.42187  -0.39603
 Alpha  occ. eigenvalues --   -0.38061  -0.36722  -0.36291  -0.33799  -0.33134
 Alpha  occ. eigenvalues --   -0.24295
 Alpha virt. eigenvalues --    0.00408   0.04487   0.04612   0.05629   0.06121
 Alpha virt. eigenvalues --    0.06640   0.07813   0.09947   0.10823   0.11178
 Alpha virt. eigenvalues --    0.12755   0.13148   0.14818   0.15044   0.16330

 Mulliken charges:
               1
     1  N   -0.350572
     2  C    0.205531
     3  C   -0.084236
     4  C   -0.085291
     5  C   -0.085291
     6  H    0.093471
     7  H    0.093471
     8  H    0.024573
     9  H    0.015809
    10  H    0.015809
    11  H    0.023056
    12  H    0.015926
    13  H    0.039381
    14  H    0.023056
    15  H    0.015926
    16  H    0.039381
 Sum of Mulliken charges =  -0.00000

 Dipole moment (field-independent basis, Debye):
    X=              1.1866    Y=              0.0254    Z=              0.0000  Tot=              1.1869
 Quadrupole moment (field-independent basis, Debye-Ang):
   XX=            -37.5859   YY=            -33.2647   ZZ=            -33.6484
   XY=              2.0149   XZ=             -0.0000   YZ=             -0.0000

  Exact polarizability:  61.128   0.548  60.295   0.000   0.000  61.586
 Approx polarizability:  81.191  -0.187  83.169  -0.000  -0.000  82.844

                      1                      2                      3
                     A"                     A"                     A'
 Frequencies --    212.3715               260.7365               268.0727
 Red. masses --      1.0135                 1.0692                 1.0402
 Frc consts  --      0.0269                 0.0428                 0.0440
 IR Inten    --      4.2994                23.2033                 0.0057

                      4                      5                      6
                     A"                     A'                     A"
 Frequencies --    282.3039               335.8369               345.7462
 Red. masses --      1.0278                 2.2521                 2.1963
 Frc consts  --      0.0483                 0.1497                 0.1547
 IR Inten    --      7.4488                 1.2566                 4.2220

                      7                      8                      9
                     A'                     A'                     A"
 Frequencies --    421.1405               449.1517               450.6668
 Red. masses --      2.1044                 2.3367                 2.3061
 Frc consts  --      0.2199                 0.2777                 0.2760
 IR Inten    --      0.1503                 8.3032                 5.6082

                     10                     11                     12
                     A'                     A'                     A'
 Frequencies --    741.4190               847.4340               908.0156
 Red. masses --      3.7587                 1.4687                 1.8034
 Frc consts  --      1.2173                 0.6215                 0.8761
 IR Inten    --      1.5400               144.0206                 0.0026

                     13                     14                     15
                     A"                     A'                     A"
 Frequencies --    927.6164               947.2753               961.5165
 Red. masses --      1.8373                 1.8301                 1.2049
 Frc consts  --      0.9315                 0.9676                 0.6563
 IR Inten    --      0.0611                 2.2532                 0.0046

                     16                     17                     18
                     A"                     A'                     A"
 Frequencies --   1011.7182              1055.2488              1126.5959
 Red. masses --      1.2908                 1.3985                 1.3634
 Frc consts  --      0.7785                 0.9175                 1.0196
 IR Inten    --      1.1222                 5.6469                 1.4026

                     19                     20                     21
                     A'                     A'                     A"
 Frequencies --   1234.8910              1266.7656              1344.8864
 Red. masses --      2.6274                 2.7819                 1.9199
 Frc consts  --      2.3606                 2.6302                 2.0460
 IR Inten    --     28.5307                18.8875                 3.0820

                     22                     23                     24
                     A'                     A"                     A'
 Frequencies --   1396.5515              1400.4716              1426.1395
 Red. masses --      1.2355                 1.2923                 1.2318
 Frc consts  --      1.4197                 1.4933                 1.4762
 IR Inten    --     12.6950                12.1778                 4.3308

                     25                     26                     27
                     A"                     A'                     A"
 Frequencies --   1477.3309              1481.3717              1487.4489
 Red. masses --      1.0480                 1.0465                 1.0437
 Frc consts  --      1.3476                 1.3530                 1.3605
 IR Inten    --      0.0076                 0.0539                 0.0022

                     28                     29                     30
                     A'                     A"                     A'
 Frequencies --   1498.4288              1505.6792              1514.3106
 Red. masses --      1.0541                 1.0737                 1.0570
 Frc consts  --      1.3944                 1.4342                 1.4280
 IR Inten    --      3.9746                 6.4537                 9.7262

                     31                     32                     33
                     A'                     A'                     A"
 Frequencies --   1653.0522              3015.4688              3024.4992
 Red. masses --      1.0954                 1.0341                 1.0361
 Frc consts  --      1.7635                 5.5402                 5.5841
 IR Inten    --     31.6359                27.8436                46.2662

                     34                     35                     36
                     A'                     A'                     A"
 Frequencies --   3031.1374              3078.7709              3080.8488
 Red. masses --      1.0376                 1.1014                 1.1017
 Frc consts  --      5.6168                 6.1511                 6.1610
 IR Inten    --      3.6036                 7.1698                10.4979

                     37                     38                     39
                     A"                     A'                     A"
 Frequencies --   3086.6230              3089.9347              3105.3068
 Red. masses --      1.1003                 1.0984                 1.1025
 Frc consts  --      6.1762                 6.1791                 6.2637
 IR Inten    --     38.7917                74.7780                 0.5842

                     40                     41                     42
                     A'                     A'                     A"
 Frequencies --   3110.7164              3478.9012              3558.3193
 Red. masses --      1.1017                 1.0486                 1.0931
 Frc consts  --      6.2811                 7.4770                 8.1549
 IR Inten    --     48.2065                 1.7338                 0.0000

 - Thermochemistry -
 -------------------
 Temperature   298.150 Kelvin.  Pressure   1.00000 Atm.
 Atom     1 has atomic number  7 and mass  14.00307

 Molecular mass:    73.08915 amu.
 Principal axes and moments of inertia in atomic units:
                           1         2         3
     Eigenvalues --   392.97692 395.56913 402.86835
           X            0.00000   0.99785  -0.06553
           Y            0.00000   0.06553   0.99785
           Z            1.00000  -0.00000  -0.00000
 This molecule is an asymmetric top.
 Rotational symmetry number  1.
 Rotational temperatures (Kelvin)      0.22040     0.21896     0.21499
 Rotational constants (GHZ):           4.59249     4.56239     4.47973
 Zero-point vibrational energy     388192.5 (Joules/Mol)
                                   92.78024 (Kcal/Mol)
 Warning -- explicit consideration of   9 degrees of freedom as
           vibrations may cause significant error
 Vibrational temperatures:    305.56   375.14   385.70   406.17   483.19
          (Kelvin)            497.45   605.93   646.23   648.41  1066.74
                             1219.27  1306.43  1334.63  1362.92  1383.41
                             1455.64  1518.27  1620.92  1776.73  1822.59
                             1934.99  2009.33  2014.97  2051.90  2125.55
                             2131.36  2140.11  2155.90  2166.34  2178.76
                             2378.37  4338.59  4351.58  4361.13  4429.66
                             4432.65  4440.96  4445.73  4467.84  4475.63
                             5005.36  5119.63

 Zero-point correction=                           0.147855 (Hartree/Particle)
 Thermal correction to Energy=                    0.154696
 Thermal correction to Enthalpy=                  0.155640
 Thermal correction to Gibbs Free Energy=         0.118822
 Sum of electronic and zero-point Energies=           -213.752052
 Sum of electronic and thermal Energies=              -213.745211
 Sum of electronic and thermal Enthalpies=            -213.744267
 Sum of electronic and thermal Free Energies=         -213.781084

                     E (Thermal)             CV                S
                      KCal/Mol        Cal/Mol-Kelvin    Cal/Mol-Kelvin
 Total                   97.073             25.674             77.489
 Electronic               0.000              0.000              0.000
 Translational            0.889              2.981             38.784
 Rotational               0.889              2.981             25.641
 Vibrational             95.295             19.712             13.064
 Vibration     1          0.643              1.822              2.023
 Vibration     2          0.669              1.745              1.657
 Vibration     3          0.673              1.732              1.609
 Vibration     4          0.681              1.706              1.520
 Vibration     5          0.717              1.604              1.232
 Vibration     6          0.724              1.584              1.186
 Vibration     7          0.784              1.424              0.888
 Vibration     8          0.808              1.363              0.798
 Vibration     9          0.809              1.359              0.794

 Optimization completed.
    -- Stationary point found.
 Normal termination of Gaussian 16 at Fri Jun 17 18:22:18 2022.
