 Gaussian 16, Revision B.01,

 ---------------------------------------
 # b3lyp/gen opt freq CPHF(Grid=OneStep)
 ---------------------------------------

 ---------------------------
 t-butylamine, B3LYP/pcseg-2
 ---------------------------
 Symbolic Z-matrix:
 Charge =  0 Multiplicity = 1

 SCF Done:  E(RB3LYP) =  -213.899906742     A.U. after   11 cycles
 Optimization completed.
    -- Stationary point found.
 Normal termination of Gaussian 16 at Sat Sep 30 11:27:52 2023.

 ------------------------------------------------------------------
 #N Geom=AllCheck Guess=TCheck SCRF=Check GenChk RB3LYP/ChkBas Freq
 ------------------------------------------------------------------

 Structure from the checkpoint file:  "tBuNH2.chk"
 ---------------------------
 t-butylamine, B3LYP/pcseg-2
 ---------------------------
 Charge =  0 Multiplicity = 1

 SCF Done:  E(RB3LYP) =  -213.899906742     A.U. after    1 cycles

  Exact polarizability:  61.127   0.547  60.295   0.000   0.000  61.586
 Approx polarizability:  81.191  -0.187  83.169   0.000   0.000  82.844

                      1                      2                      3
                     A"                     A"                     A'
 Frequencies --    212.3819               260.7557               268.0757
 Red. masses --      1.0135                 1.0692                 1.0402
 Frc consts  --      0.0269                 0.0428                 0.0440
 IR Inten    --      4.2950                23.1973                 0.0057

                      4                      5                      6
                     A"                     A'                     A"
 Frequencies --    282.3096               335.8366               345.7467
 Red. masses --      1.0279                 2.2521                 2.1963
 Frc consts  --      0.0483                 0.1497                 0.1547
 IR Inten    --      7.4562                 1.2563                 4.2232

                      7                      8                      9
                     A'                     A'                     A"
 Frequencies --    421.1410               449.1536               450.6666
 Red. masses --      2.1044                 2.3367                 2.3061
 Frc consts  --      0.2199                 0.2777                 0.2760
 IR Inten    --      0.1502                 8.3020                 5.6087

                     10                     11                     12
                     A'                     A'                     A'
 Frequencies --    741.4152               847.4421               908.0198
 Red. masses --      3.7587                 1.4687                 1.8034
 Frc consts  --      1.2173                 0.6215                 0.8761
 IR Inten    --      1.5402               144.0287                 0.0026

                     13                     14                     15
                     A"                     A'                     A"
 Frequencies --    927.6203               947.2824               961.5237
 Red. masses --      1.8373                 1.8302                 1.2049
 Frc consts  --      0.9315                 0.9676                 0.6563
 IR Inten    --      0.0609                 2.2533                 0.0046

                     16                     17                     18
                     A"                     A'                     A"
 Frequencies --   1011.7345              1055.2508              1126.6025
 Red. masses --      1.2908                 1.3985                 1.3635
 Frc consts  --      0.7785                 0.9175                 1.0196
 IR Inten    --      1.1228                 5.6481                 1.4033

                     19                     20                     21
                     A'                     A'                     A"
 Frequencies --   1234.8902              1266.7653              1344.8903
 Red. masses --      2.6274                 2.7820                 1.9199
 Frc consts  --      2.3607                 2.6302                 2.0460
 IR Inten    --     28.5323                18.8921                 3.0828

                     22                     23                     24
                     A'                     A"                     A'
 Frequencies --   1396.5545              1400.4753              1426.1394
 Red. masses --      1.2355                 1.2923                 1.2318
 Frc consts  --      1.4197                 1.4933                 1.4761
 IR Inten    --     12.6906                12.1733                 4.3281

                     25                     26                     27
                     A"                     A'                     A"
 Frequencies --   1477.3311              1481.3802              1487.4628
 Red. masses --      1.0480                 1.0465                 1.0437
 Frc consts  --      1.3476                 1.3530                 1.3605
 IR Inten    --      0.0076                 0.0539                 0.0022

                     28                     29                     30
                     A'                     A"                     A'
 Frequencies --   1498.4278              1505.6798              1514.3099
 Red. masses --      1.0541                 1.0737                 1.0570
 Frc consts  --      1.3944                 1.4342                 1.4280
 IR Inten    --      3.9753                 6.4542                 9.7248

                     31                     32                     33
                     A'                     A'                     A"
 Frequencies --   1653.0588              3015.4685              3024.5023
 Red. masses --      1.0953                 1.0341                 1.0361
 Frc consts  --      1.7635                 5.5402                 5.5841
 IR Inten    --     31.6322                27.8516                46.2779

                     34                     35                     36
                     A'                     A'                     A"
 Frequencies --   3031.1381              3078.7795              3080.8627
 Red. masses --      1.0376                 1.1014                 1.1017
 Frc consts  --      5.6168                 6.1511                 6.1611
 IR Inten    --      3.6087                 7.1805                10.4979

                     37                     38                     39
                     A"                     A'                     A"
 Frequencies --   3086.6254              3089.9346              3105.3269
 Red. masses --      1.1003                 1.0984                 1.1025
 Frc consts  --      6.1762                 6.1791                 6.2638
 IR Inten    --     38.7855                74.7689                 0.5830

                     40                     41                     42
                     A'                     A'                     A"
 Frequencies --   3110.7224              3478.8952              3558.3134
 Red. masses --      1.1017                 1.0486                 1.0931
 Frc consts  --      6.2811                 7.4770                 8.1548
 IR Inten    --     48.1963                 1.7335                 0.0000

 - Thermochemistry -
 -------------------
 Temperature   298.150 Kelvin.  Pressure   1.00000 Atm.
 Atom     1 has atomic number  7 and mass  14.00307

 Molecular mass:    73.08915 amu.
 Principal axes and moments of inertia in atomic units:
                           1         2         3
     Eigenvalues --   392.97693 395.56922 402.86849
           X            0.00000   0.99785  -0.06553
           Y            0.00000   0.06553   0.99785
           Z            1.00000   0.00000  -0.00000
 This molecule is an asymmetric top.
 Rotational symmetry number  1.
 Rotational temperatures (Kelvin)      0.22040     0.21896     0.21499
 Rotational constants (GHZ):           4.59249     4.56239     4.47973
 Zero-point vibrational energy     388193.5 (Joules/Mol)
                                   92.78048 (Kcal/Mol)
 Warning -- explicit consideration of   9 degrees of freedom as
           vibrations may cause significant error
 Vibrational temperatures:    305.57   375.17   385.70   406.18   483.19
          (Kelvin)            497.45   605.93   646.23   648.41  1066.73
                             1219.28  1306.44  1334.64  1362.93  1383.42
                             1455.66  1518.27  1620.93  1776.73  1822.59
                             1935.00  2009.33  2014.97  2051.90  2125.55
                             2131.38  2140.13  2155.90  2166.34  2178.75
                             2378.38  4338.59  4351.58  4361.13  4429.68
                             4432.67  4440.97  4445.73  4467.87  4475.64
                             5005.35  5119.62

 Zero-point correction=                           0.147855 (Hartree/Particle)
 Thermal correction to Energy=                    0.154696
 Thermal correction to Enthalpy=                  0.155640
 Thermal correction to Gibbs Free Energy=         0.118823
 Sum of electronic and zero-point Energies=           -213.752052
 Sum of electronic and thermal Energies=              -213.745211
 Sum of electronic and thermal Enthalpies=            -213.744267
 Sum of electronic and thermal Free Energies=         -213.781084

                     E (Thermal)             CV                S
                      KCal/Mol        Cal/Mol-Kelvin    Cal/Mol-Kelvin
 Total                   97.073             25.673             77.488
 Electronic               0.000              0.000              0.000
 Translational            0.889              2.981             38.784
 Rotational               0.889              2.981             25.641
 Vibrational             95.296             19.712             13.064
 Vibration     1          0.643              1.822              2.023
 Vibration     2          0.669              1.745              1.657
 Vibration     3          0.673              1.732              1.609
 Vibration     4          0.681              1.706              1.520
 Vibration     5          0.717              1.604              1.232
 Vibration     6          0.724              1.584              1.186
 Vibration     7          0.784              1.424              0.888
 Vibration     8          0.808              1.363              0.798
 Vibration     9          0.809              1.359              0.794

 Optimization completed.
    -- Stationary point found.
 Normal termination of Gaussian 16 at Sat Sep 30 11:46:18 2023.
 Gaussian 16:  ES64L-G16RevB.01 20-Dec-2017

 ---------------------------------
 # rohf/gen geom=check guess=check
 ---------------------------------

 ------------------------------
 t-butylamine, ROHF/cc-pVTZ-F12
 ------------------------------
 Structure from the checkpoint file:  "tBuNH2.chk"
 Charge =  0 Multiplicity = 1

                         Standard orientation:
 ---------------------------------------------------------------------
 Center     Atomic      Atomic             Coordinates (Angstroms)
 Number     Number       Type             X           Y           Z
 ---------------------------------------------------------------------
      1          7           0       -0.544606    1.387175    0.000000
      2          6           0       -0.011584    0.011520    0.000000
      3          6           0        1.527709   -0.018338   -0.000000
      4          6           0       -0.544606   -0.686486    1.255619
      5          6           0       -0.544606   -0.686486   -1.255619
      6          1           0       -0.219648    1.895572    0.814266
      7          1           0       -0.219648    1.895572   -0.814266
      8          1           0        1.911157   -1.040912   -0.000000
      9          1           0        1.923212    0.487747   -0.882959
     10          1           0        1.923212    0.487747    0.882959
     11          1           0       -0.204464   -1.721674    1.301604
     12          1           0       -0.195254   -0.181135    2.158838
     13          1           0       -1.634046   -0.675792    1.263051
     14          1           0       -0.204464   -1.721674   -1.301604
     15          1           0       -0.195254   -0.181135   -2.158838
     16          1           0       -1.634046   -0.675792   -1.263051
 ---------------------------------------------------------------------

 SCF Done:  E(ROHF) =  -212.417459403     A.U. after   10 cycles

 The electronic state is 1-A'.
 Alpha  occ. eigenvalues --  -15.53183 -11.25850 -11.20951 -11.20642 -11.20641
 Alpha  occ. eigenvalues --   -1.18761  -1.02866  -0.93245  -0.93229  -0.75052
 Alpha  occ. eigenvalues --   -0.65564  -0.62822  -0.60279  -0.57579  -0.54624
 Alpha  occ. eigenvalues --   -0.52737  -0.51216  -0.50245  -0.47420  -0.46152
 Alpha  occ. eigenvalues --   -0.38554
 Alpha virt. eigenvalues --    0.04184   0.05103   0.05268   0.06222   0.08537
 Alpha virt. eigenvalues --    0.08711   0.08785   0.09171   0.09324   0.11851
 Alpha virt. eigenvalues --    0.12280   0.12881   0.13577   0.17034   0.17148

 Mulliken charges and spin densities:
               1          2
     1  N   -0.853965   0.000000
     2  C    0.352154   0.000000
     3  C   -0.300412   0.000000
     4  C   -0.300426   0.000000
     5  C   -0.300426   0.000000
     6  H    0.249514   0.000000
     7  H    0.249514   0.000000
     8  H    0.094628   0.000000
     9  H    0.100105   0.000000
    10  H    0.100105   0.000000
    11  H    0.099776   0.000000
    12  H    0.091066   0.000000
    13  H    0.113764   0.000000
    14  H    0.099776   0.000000
    15  H    0.091066   0.000000
    16  H    0.113764   0.000000
 Sum of Mulliken charges =  -0.00000   0.00000

 Dipole moment (field-independent basis, Debye):
    X=              1.2551    Y=             -0.0069    Z=             -0.0000  Tot=              1.2551
 Quadrupole moment (field-independent basis, Debye-Ang):
   XX=            -37.3241   YY=            -33.1254   ZZ=            -33.3978
   XY=              2.1130   XZ=             -0.0000   YZ=              0.0000

 Normal termination of Gaussian 16 at Sat Sep 30 11:50:15 2023.
