 Gaussian 16, Revision B.01,
 Gaussian 16:  ES64L-G16RevB.01 20-Dec-2017

 --------------------
 # b3lyp/gen opt freq
 --------------------

 --------------------------------
 trichloroethylene, B3LYP/pcseg-2
 --------------------------------
 Symbolic Z-matrix:
 Charge =  0 Multiplicity = 1

 SCF Done:  E(RB3LYP) =  -1457.52138154     A.U. after   13 cycles
 SCF Done:  E(RB3LYP) =  -1457.52161089     A.U. after   10 cycles
 SCF Done:  E(RB3LYP) =  -1457.52162470     A.U. after    9 cycles
 SCF Done:  E(RB3LYP) =  -1457.52162549     A.U. after    7 cycles
 Optimization completed.
    -- Stationary point found.
 Normal termination of Gaussian 16 at Fri Jun 17 14:36:13 2022.

 ------------------------------------------------------------------
 #N Geom=AllCheck Guess=TCheck SCRF=Check GenChk RB3LYP/ChkBas Freq
 ------------------------------------------------------------------

 Structure from the checkpoint file:  "/wrk/irikura/Gau-9697.chk"
 --------------------------------
 trichloroethylene, B3LYP/pcseg-2
 --------------------------------
 Charge =  0 Multiplicity = 1

                         Standard orientation:
 ---------------------------------------------------------------------
 Center     Atomic      Atomic             Coordinates (Angstroms)
 Number     Number       Type             X           Y           Z
 ---------------------------------------------------------------------
      1          6           0       -1.031881   -0.399145    0.000000
      2          6           0       -0.000000    0.437910    0.000000
      3          1           0       -2.043841   -0.028513    0.000000
      4         17           0       -0.891405   -2.114843    0.000000
      5         17           0       -0.273955    2.150376    0.000000
      6         17           0        1.649779   -0.047538    0.000000
 ---------------------------------------------------------------------

 SCF Done:  E(RB3LYP) =  -1457.52162549     A.U. after    1 cycles

 The electronic state is 1-A'.
 Alpha  occ. eigenvalues -- -101.54517-101.54474-101.53829 -10.30786 -10.25824
 Alpha  occ. eigenvalues --   -9.49010  -9.48962  -9.48312  -7.25203  -7.25161
 Alpha  occ. eigenvalues --   -7.24487  -7.24293  -7.24237  -7.24223  -7.24207
 Alpha  occ. eigenvalues --   -7.23613  -7.23543  -0.94620  -0.88691  -0.85737
 Alpha  occ. eigenvalues --   -0.74683  -0.58608  -0.51922  -0.49932  -0.43837
 Alpha  occ. eigenvalues --   -0.43412  -0.37102  -0.36228  -0.34930  -0.34201
 Alpha  occ. eigenvalues --   -0.32787  -0.26627
 Alpha virt. eigenvalues --   -0.04064  -0.01728  -0.00812   0.01960   0.08174
 Alpha virt. eigenvalues --    0.10368   0.12594   0.16448   0.18531   0.21643
 Alpha virt. eigenvalues --    0.23093   0.23997   0.25113   0.27724   0.29332

 Mulliken charges:
               1
     1  C    0.015518
     2  C    0.060198
     3  H    0.114163
     4  Cl  -0.072765
     5  Cl  -0.067368
     6  Cl  -0.049745
 Sum of Mulliken charges =  -0.00000

 Dipole moment (field-independent basis, Debye):
    X=             -0.8236    Y=              0.2477    Z=              0.0000  Tot=              0.8601
 Quadrupole moment (field-independent basis, Debye-Ang):
   XX=            -46.7222   YY=            -49.9402   ZZ=            -50.1115
   XY=             -1.0081   XZ=              0.0000   YZ=              0.0000

  Exact polarizability:  62.078   5.342  80.141  -0.000  -0.000  34.386
 Approx polarizability:  98.687   8.160 122.122  -0.000  -0.000  53.768

                      1                      2                      3
                     A'                     A"                     A'
 Frequencies --    170.9426               204.5828               275.9321
 Red. masses --     26.1347                 6.6510                22.4492
 Frc consts  --      0.4500                 0.1640                 1.0071
 IR Inten    --      0.8510                 0.3149                 0.2733

                      4                      5                      6
                     A'                     A"                     A'
 Frequencies --    385.1298               475.9953               627.6781
 Red. masses --     26.0291                 4.9999                 9.8649
 Frc consts  --      2.2747                 0.6674                 2.2899
 IR Inten    --      0.1175                 4.8917                15.2796

                      7                      8                      9
                     A"                     A'                     A'
 Frequencies --    815.7055               829.3427               913.4666
 Red. masses --      1.3244                10.3199                 6.3186
 Frc consts  --      0.5192                 4.1821                 3.1064
 IR Inten    --     24.7486               124.6571               100.3968

                     10                     11                     12
                     A'                     A'                     A'
 Frequencies --   1271.9773              1636.9551              3229.0018
 Red. masses --      1.1675                 9.3192                 1.0918
 Frc consts  --      1.1129                14.7131                 6.7073
 IR Inten    --     10.1318                13.6059                13.1535

 - Thermochemistry -
 -------------------
 Temperature   298.150 Kelvin.  Pressure   1.00000 Atm.
 Atom     1 has atomic number  6 and mass  12.00000

 Molecular mass:   129.91438 amu.
 Principal axes and moments of inertia in atomic units:
                           1         2         3
     Eigenvalues --   466.796151193.464961660.26112
           X            0.24092   0.97054   0.00000
           Y            0.97054  -0.24092   0.00000
           Z            0.00000  -0.00000   1.00000
 This molecule is an asymmetric top.
 Rotational symmetry number  1.
 Warning -- assumption of classical behavior for rotation
           may cause significant error
 Rotational temperatures (Kelvin)      0.18555     0.07257     0.05217
 Rotational constants (GHZ):           3.86623     1.51219     1.08702
 Zero-point vibrational energy      64817.9 (Joules/Mol)
                                   15.49185 (Kcal/Mol)
 Warning -- explicit consideration of   5 degrees of freedom as
           vibrations may cause significant error
 Vibrational temperatures:    245.95   294.35   397.00   554.12   684.85
          (Kelvin)            903.09  1173.62  1193.24  1314.27  1830.09
                             2355.21  4645.81

 Zero-point correction=                           0.024688 (Hartree/Particle)
 Thermal correction to Energy=                    0.030056
 Thermal correction to Enthalpy=                  0.031000
 Thermal correction to Gibbs Free Energy=        -0.005862
 Sum of electronic and zero-point Energies=          -1457.496938
 Sum of electronic and thermal Energies=             -1457.491570
 Sum of electronic and thermal Enthalpies=           -1457.490626
 Sum of electronic and thermal Free Energies=        -1457.527488

                     E (Thermal)             CV                S
                      KCal/Mol        Cal/Mol-Kelvin    Cal/Mol-Kelvin
 Total                   18.860             17.089             77.583
 Electronic               0.000              0.000              0.000
 Translational            0.889              2.981             40.498
 Rotational               0.889              2.981             28.316
 Vibrational             17.083             11.128              8.769
 Vibration     1          0.626              1.878              2.425
 Vibration     2          0.640              1.833              2.091
 Vibration     3          0.678              1.718              1.559
 Vibration     4          0.754              1.502              1.019
 Vibration     5          0.833              1.303              0.721

 Optimization completed.
    -- Stationary point found.
 Normal termination of Gaussian 16 at Fri Jun 17 14:36:52 2022.
