 Gaussian 16, Revision B.01,

 ---------------------------------------
 # b3lyp/gen opt freq CPHF(Grid=OneStep)
 ---------------------------------------

 ---------------------------
 tetrahedrane, B3LYP/pcseg-2
 ---------------------------
 Symbolic Z-matrix:
 Charge =  0 Multiplicity = 1

 SCF Done:  E(RB3LYP) =  -154.700684679     A.U. after    9 cycles
 Optimization completed.
    -- Stationary point found.
 Normal termination of Gaussian 16 at Fri Sep 29 14:56:22 2023.

 ------------------------------------------------------------------
 #N Geom=AllCheck Guess=TCheck SCRF=Check GenChk RB3LYP/ChkBas Freq
 ------------------------------------------------------------------

 Structure from the checkpoint file:  "tetrahedrane.chk"
 ---------------------------
 tetrahedrane, B3LYP/pcseg-2
 ---------------------------
 Charge =  0 Multiplicity = 1

 SCF Done:  E(RB3LYP) =  -154.700684679     A.U. after    1 cycles

  Exact polarizability:  38.391   0.000  38.391   0.000   0.000  38.391
 Approx polarizability:  56.999  -0.000  56.999   0.000  -0.000  56.999

                      1                      2                      3
                      E                      E                     T2
 Frequencies --    573.7955               573.7955               775.8218
 Red. masses --      1.5767                 1.5767                 1.1081
 Frc consts  --      0.3059                 0.3059                 0.3929
 IR Inten    --      0.0000                 0.0000                69.4200

                      4                      5                      6
                     T2                     T2                      E
 Frequencies --    775.8218               775.8218               838.3089
 Red. masses --      1.1081                 1.1081                 2.2658
 Frc consts  --      0.3929                 0.3929                 0.9382
 IR Inten    --     69.4200                69.4200                 0.0000

                      7                      8                      9
                      E                     T1                     T1
 Frequencies --    838.3089               893.5760               893.5760
 Red. masses --      2.2658                 1.3651                 1.3651
 Frc consts  --      0.9382                 0.6422                 0.6422
 IR Inten    --      0.0000                 0.0000                 0.0000

                     10                     11                     12
                     T1                     T2                     T2
 Frequencies --    893.5760              1145.8087              1145.8087
 Red. masses --      1.3651                 5.5418                 5.5418
 Frc consts  --      0.6422                 4.2867                 4.2867
 IR Inten    --      0.0000                 3.7687                 3.7687

                     13                     14                     15
                     T2                     A1                     T2
 Frequencies --   1145.8087              1452.7873              3336.8634
 Red. masses --      5.5418                 5.1548                 1.0936
 Frc consts  --      4.2867                 6.4101                 7.1741
 IR Inten    --      3.7687                 0.0000                13.2508

                     16                     17                     18
                     T2                     T2                     A1
 Frequencies --   3336.8634              3336.8634              3373.7483
 Red. masses --      1.0936                 1.0936                 1.1343
 Frc consts  --      7.1741                 7.1741                 7.6070
 IR Inten    --     13.2508                13.2508                 0.0000

 - Thermochemistry -
 -------------------
 Temperature   298.150 Kelvin.  Pressure   1.00000 Atm.
 Atom     1 has atomic number  6 and mass  12.00000

 Molecular mass:    52.03130 amu.
 Principal axes and moments of inertia in atomic units:
                           1         2         3
     Eigenvalues --   130.46022 130.46022 130.46022
           X            0.89443   0.00000   0.44721
           Y           -0.44721   0.00000   0.89443
           Z            0.00000   1.00000  -0.00000
 This molecule is a spherical top.
 Rotational symmetry number 12.
 Rotational temperatures (Kelvin)      0.66391     0.66391     0.66391
 Rotational constants (GHZ):          13.83365    13.83365    13.83365
 Zero-point vibrational energy     156154.3 (Joules/Mol)
                                   37.32176 (Kcal/Mol)
 Warning -- explicit consideration of   2 degrees of freedom as
           vibrations may cause significant error
 Vibrational temperatures:    825.56   825.56  1116.23  1116.23  1116.23
          (Kelvin)           1206.14  1206.14  1285.66  1285.66  1285.66
                             1648.56  1648.56  1648.56  2090.24  4801.00
                             4801.00  4801.00  4854.07

 Zero-point correction=                           0.059476 (Hartree/Particle)
 Thermal correction to Energy=                    0.063286
 Thermal correction to Enthalpy=                  0.064230
 Thermal correction to Gibbs Free Energy=         0.036773
 Sum of electronic and zero-point Energies=           -154.641209
 Sum of electronic and thermal Energies=              -154.637399
 Sum of electronic and thermal Enthalpies=            -154.636455
 Sum of electronic and thermal Free Energies=         -154.663912

                     E (Thermal)             CV                S
                      KCal/Mol        Cal/Mol-Kelvin    Cal/Mol-Kelvin
 Total                   39.713             13.735             57.789
 Electronic               0.000              0.000              0.000
 Translational            0.889              2.981             37.771
 Rotational               0.889              2.981             17.385
 Vibrational             37.935              7.774              2.633
 Vibration     1          0.930              1.088              0.497
 Vibration     2          0.930              1.088              0.497

 Optimization completed.
    -- Stationary point found.
 Normal termination of Gaussian 16 at Fri Sep 29 14:57:56 2023.
 Gaussian 16:  ES64L-G16RevB.01 20-Dec-2017

 ---------------------------------
 # rohf/gen geom=check guess=check
 ---------------------------------

 ------------------------------
 tetrahedrane, ROHF/cc-pVTZ-F12
 ------------------------------
 Structure from the checkpoint file:  "tetrahedrane.chk"
 Charge =  0 Multiplicity = 1

                         Standard orientation:
 ---------------------------------------------------------------------
 Center     Atomic      Atomic             Coordinates (Angstroms)
 Number     Number       Type             X           Y           Z
 ---------------------------------------------------------------------
      1          6           0        0.521357    0.521357    0.521357
      2          6           0       -0.521357   -0.521357    0.521357
      3          6           0       -0.521357    0.521357   -0.521357
      4          6           0        0.521357   -0.521357   -0.521357
      5          1           0        1.137842    1.137842    1.137842
      6          1           0       -1.137842   -1.137842    1.137842
      7          1           0       -1.137842    1.137842   -1.137842
      8          1           0        1.137842   -1.137842   -1.137842
 ---------------------------------------------------------------------

 SCF Done:  E(ROHF) =  -153.662145015     A.U. after    9 cycles

 The electronic state is 1-A1.
 Alpha  occ. eigenvalues --  -11.24510 -11.24357 -11.24357 -11.24357  -1.29131
 Alpha  occ. eigenvalues --   -0.80925  -0.80925  -0.80925  -0.71303  -0.53812
 Alpha  occ. eigenvalues --   -0.53812  -0.53812  -0.33829  -0.33829
 Alpha virt. eigenvalues --    0.04265   0.05098   0.05098   0.05098   0.09537
 Alpha virt. eigenvalues --    0.09537   0.09537   0.10517   0.10517   0.12916
 Alpha virt. eigenvalues --    0.12916   0.12916   0.17416   0.17882   0.17882

 Mulliken charges and spin densities:
               1          2
     1  C   -0.202062  -0.000000
     2  C   -0.202062  -0.000000
     3  C   -0.202062  -0.000000
     4  C   -0.202062  -0.000000
     5  H    0.202062  -0.000000
     6  H    0.202062  -0.000000
     7  H    0.202062  -0.000000
     8  H    0.202062  -0.000000
 Sum of Mulliken charges =  -0.00000  -0.00000

 Dipole moment (field-independent basis, Debye):
    X=              0.0000    Y=              0.0000    Z=              0.0000  Tot=              0.0000
 Quadrupole moment (field-independent basis, Debye-Ang):
   XX=            -23.1362   YY=            -23.1362   ZZ=            -23.1362
   XY=             -0.0000   XZ=              0.0000   YZ=             -0.0000

 Normal termination of Gaussian 16 at Fri Sep 29 14:58:07 2023.
