 Gaussian 16, Revision B.01,
 Gaussian 16:  ES64L-G16RevB.01 20-Dec-2017

 --------------------
 # b3lyp/gen opt freq
 --------------------

 ---------------------------
 tetrahedrane, B3LYP/pcseg-2
 ---------------------------
 Symbolic Z-matrix:
 Charge =  0 Multiplicity = 1

 SCF Done:  E(RB3LYP) =  -154.700657900     A.U. after    9 cycles
 SCF Done:  E(RB3LYP) =  -154.700684683     A.U. after    6 cycles
 Optimization completed.
    -- Stationary point found.
 Normal termination of Gaussian 16 at Wed Jun 15 16:18:05 2022.

 ------------------------------------------------------------------
 #N Geom=AllCheck Guess=TCheck SCRF=Check GenChk RB3LYP/ChkBas Freq
 ------------------------------------------------------------------

 Structure from the checkpoint file:  "/wrk/irikura/Gau-25063.chk"
 ---------------------------
 tetrahedrane, B3LYP/pcseg-2
 ---------------------------
 Charge =  0 Multiplicity = 1

                         Standard orientation:
 ---------------------------------------------------------------------
 Center     Atomic      Atomic             Coordinates (Angstroms)
 Number     Number       Type             X           Y           Z
 ---------------------------------------------------------------------
      1          6           0        0.521357    0.521357    0.521357
      2          6           0       -0.521357   -0.521357    0.521357
      3          6           0       -0.521357    0.521357   -0.521357
      4          6           0        0.521357   -0.521357   -0.521357
      5          1           0        1.137842    1.137842    1.137842
      6          1           0       -1.137842   -1.137842    1.137842
      7          1           0       -1.137842    1.137842   -1.137842
      8          1           0        1.137842   -1.137842   -1.137842
 ---------------------------------------------------------------------

 SCF Done:  E(RB3LYP) =  -154.700684683     A.U. after    1 cycles

 The electronic state is 1-A1.
 Alpha  occ. eigenvalues --  -10.19334 -10.19268 -10.19268 -10.19268  -0.99532
 Alpha  occ. eigenvalues --   -0.59617  -0.59617  -0.59617  -0.53628  -0.39868
 Alpha  occ. eigenvalues --   -0.39868  -0.39868  -0.23585  -0.23585
 Alpha virt. eigenvalues --    0.03550   0.04559   0.04559   0.04559   0.10809
 Alpha virt. eigenvalues --    0.10809   0.10809   0.12318   0.12318   0.12318
 Alpha virt. eigenvalues --    0.14631   0.19631   0.19631   0.27974   0.27974

 Mulliken charges:
               1
     1  C   -0.093709
     2  C   -0.093709
     3  C   -0.093709
     4  C   -0.093709
     5  H    0.093709
     6  H    0.093709
     7  H    0.093709
     8  H    0.093709
 Sum of Mulliken charges =   0.00000

 Dipole moment (field-independent basis, Debye):
    X=             -0.0000    Y=             -0.0000    Z=             -0.0000  Tot=              0.0000
 Quadrupole moment (field-independent basis, Debye-Ang):
   XX=            -23.1758   YY=            -23.1758   ZZ=            -23.1758
   XY=             -0.0000   XZ=              0.0000   YZ=             -0.0000

  Exact polarizability:  38.391   0.000  38.391   0.000   0.000  38.391
 Approx polarizability:  56.999   0.000  56.999   0.000   0.000  56.999

                      1                      2                      3
                      E                      E                     T2
 Frequencies --    573.8099               573.8099               775.8261
 Red. masses --      1.5768                 1.5768                 1.1081
 Frc consts  --      0.3059                 0.3059                 0.3930
 IR Inten    --      0.0000                 0.0000                69.4238

                      4                      5                      6
                     T2                     T2                      E
 Frequencies --    775.8261               775.8261               838.3067
 Red. masses --      1.1081                 1.1081                 2.2657
 Frc consts  --      0.3930                 0.3930                 0.9381
 IR Inten    --     69.4238                69.4238                 0.0000

                      7                      8                      9
                      E                     T1                     T1
 Frequencies --    838.3067               893.5788               893.5788
 Red. masses --      2.2657                 1.3651                 1.3651
 Frc consts  --      0.9381                 0.6422                 0.6422
 IR Inten    --      0.0000                 0.0000                 0.0000

                     10                     11                     12
                     T1                     T2                     T2
 Frequencies --    893.5788              1145.8189              1145.8189
 Red. masses --      1.3651                 5.5417                 5.5418
 Frc consts  --      0.6422                 4.2868                 4.2868
 IR Inten    --      0.0000                 3.7654                 3.7654

                     13                     14                     15
                     T2                     A1                     T2
 Frequencies --   1145.8189              1452.7910              3336.8553
 Red. masses --      5.5418                 5.1548                 1.0936
 Frc consts  --      4.2868                 6.4101                 7.1740
 IR Inten    --      3.7654                 0.0000                13.2505

                     16                     17                     18
                     T2                     T2                     A1
 Frequencies --   3336.8553              3336.8553              3373.7404
 Red. masses --      1.0936                 1.0936                 1.1343
 Frc consts  --      7.1740                 7.1740                 7.6070
 IR Inten    --     13.2505                13.2505                 0.0000

 - Thermochemistry -
 -------------------
 Temperature   298.150 Kelvin.  Pressure   1.00000 Atm.
 Atom     1 has atomic number  6 and mass  12.00000

 Molecular mass:    52.03130 amu.
 Principal axes and moments of inertia in atomic units:
                           1         2         3
     Eigenvalues --   130.46011 130.46011 130.46011
           X            1.00000  -0.00000   0.00000
           Y            0.00000   1.00000   0.00000
           Z            0.00000   0.00000   1.00000
 This molecule is a spherical top.
 Rotational symmetry number 12.
 Rotational temperatures (Kelvin)      0.66391     0.66391     0.66391
 Rotational constants (GHZ):          13.83366    13.83366    13.83366
 Zero-point vibrational energy     156154.5 (Joules/Mol)
                                   37.32183 (Kcal/Mol)
 Warning -- explicit consideration of   2 degrees of freedom as
           vibrations may cause significant error
 Vibrational temperatures:    825.58   825.58  1116.24  1116.24  1116.24
          (Kelvin)           1206.14  1206.14  1285.66  1285.66  1285.66
                             1648.58  1648.58  1648.58  2090.24  4800.99
                             4800.99  4800.99  4854.06

 Zero-point correction=                           0.059476 (Hartree/Particle)
 Thermal correction to Energy=                    0.063286
 Thermal correction to Enthalpy=                  0.064230
 Thermal correction to Gibbs Free Energy=         0.036773
 Sum of electronic and zero-point Energies=           -154.641209
 Sum of electronic and thermal Energies=              -154.637399
 Sum of electronic and thermal Enthalpies=            -154.636454
 Sum of electronic and thermal Free Energies=         -154.663912

                     E (Thermal)             CV                S
                      KCal/Mol        Cal/Mol-Kelvin    Cal/Mol-Kelvin
 Total                   39.713             13.735             57.789
 Electronic               0.000              0.000              0.000
 Translational            0.889              2.981             37.771
 Rotational               0.889              2.981             17.385
 Vibrational             37.935              7.774              2.633
 Vibration     1          0.930              1.088              0.497
 Vibration     2          0.930              1.088              0.497

 Optimization completed.
    -- Stationary point found.
 Normal termination of Gaussian 16 at Wed Jun 15 16:18:30 2022.
