 Gaussian 16, Revision B.01,

 ---------------------------------------
 # b3lyp/gen opt freq CPHF(Grid=OneStep)
 ---------------------------------------

 ------------------------------
 tetrahydrofuran, B3LYP/pcseg-2
 ------------------------------
 Symbolic Z-matrix:
 Charge =  0 Multiplicity = 1

 SCF Done:  E(RB3LYP) =  -232.546211955     A.U. after   12 cycles
 Optimization completed.
    -- Stationary point found.
 Normal termination of Gaussian 16 at Fri Sep 29 16:29:08 2023.

 ------------------------------------------------------------------
 #N Geom=AllCheck Guess=TCheck SCRF=Check GenChk RB3LYP/ChkBas Freq
 ------------------------------------------------------------------

 Structure from the checkpoint file:  "THF.chk"
 ------------------------------
 tetrahydrofuran, B3LYP/pcseg-2
 ------------------------------
 Charge =  0 Multiplicity = 1

 SCF Done:  E(RB3LYP) =  -232.546211955     A.U. after    1 cycles

  Exact polarizability:  45.893   0.518  55.981   0.000  -0.000  49.877
 Approx polarizability:  65.689  -0.161  72.662  -0.000   0.000  67.338

                      1                      2                      3
                      B                      A                      B
 Frequencies --     47.3454               243.4164               583.8497
 Red. masses --      2.3760                 1.5992                 1.7507
 Frc consts  --      0.0031                 0.0558                 0.3516
 IR Inten    --      5.0724                 0.0101                 0.5966

                      4                      5                      6
                      A                      A                      B
 Frequencies --    675.2096               842.6034               879.9185
 Red. masses --      3.3229                 1.6656                 1.9792
 Frc consts  --      0.8926                 0.6967                 0.9029
 IR Inten    --      3.7449                 6.5687                 7.5771

                      7                      8                      9
                      B                      A                      A
 Frequencies --    908.3849               909.1480               924.6627
 Red. masses --      1.7587                 3.7974                 2.6043
 Frc consts  --      0.8550                 1.8493                 1.3119
 IR Inten    --      5.8771                21.6092                 8.9946

                     10                     11                     12
                      B                      A                      B
 Frequencies --    969.8306              1034.0509              1090.1224
 Red. masses --      1.3648                 1.8275                 7.1169
 Frc consts  --      0.7563                 1.1513                 4.9830
 IR Inten    --      0.4194                 5.2688               112.8524

                     13                     14                     15
                      A                      B                      A
 Frequencies --   1171.9440              1187.9487              1190.3448
 Red. masses --      1.7707                 1.2511                 1.4522
 Frc consts  --      1.4329                 1.0403                 1.2124
 IR Inten    --      0.0355                 4.3158                 6.3449

                     16                     17                     18
                      A                      B                      B
 Frequencies --   1259.6052              1262.2918              1324.0856
 Red. masses --      1.1654                 1.2342                 1.3897
 Frc consts  --      1.0894                 1.1587                 1.4354
 IR Inten    --      0.1219                 6.8783                 1.0913

                     19                     20                     21
                      A                      B                      A
 Frequencies --   1339.6359              1367.8043              1399.3434
 Red. masses --      1.2429                 1.2758                 1.3390
 Frc consts  --      1.3142                 1.4063                 1.5449
 IR Inten    --      0.6768                 0.0181                 2.9016

                     22                     23                     24
                      B                      A                      B
 Frequencies --   1490.5441              1499.5588              1525.5398
 Red. masses --      1.0896                 1.0997                 1.0865
 Frc consts  --      1.4263                 1.4570                 1.4898
 IR Inten    --      3.6603                 4.9514                 0.5746

                     25                     26                     27
                      A                      B                      A
 Frequencies --   1536.3906              2992.8398              2997.5250
 Red. masses --      1.0982                 1.0690                 1.0720
 Frc consts  --      1.5274                 5.6416                 5.6751
 IR Inten    --      0.0117               136.4646                 2.6087

                     28                     29                     30
                      A                      B                      B
 Frequencies --   3040.0490              3044.4093              3064.1730
 Red. masses --      1.0698                 1.0644                 1.0905
 Frc consts  --      5.8254                 5.8127                 6.0324
 IR Inten    --     18.3830                 9.8084               102.5896

                     31                     32                     33
                      A                      A                      B
 Frequencies --   3066.3148              3094.6598              3103.6591
 Red. masses --      1.0914                 1.0978                 1.1057
 Frc consts  --      6.0461                 6.1943                 6.2753
 IR Inten    --      1.3097                18.8265                50.6009

 - Thermochemistry -
 -------------------
 Temperature   298.150 Kelvin.  Pressure   1.00000 Atm.
 Atom     1 has atomic number  8 and mass  15.99491

 Molecular mass:    72.05751 amu.
 Principal axes and moments of inertia in atomic units:
                           1         2         3
     Eigenvalues --   254.66911 257.44336 451.99978
           X            0.00000   0.11267   0.99363
           Y            0.00000   0.99363  -0.11267
           Z            1.00000   0.00000   0.00000
 This molecule is an asymmetric top.
 Rotational symmetry number  2.
 Rotational temperatures (Kelvin)      0.34010     0.33644     0.19162
 Rotational constants (GHZ):           7.08661     7.01025     3.99279
 Zero-point vibrational energy     305449.7 (Joules/Mol)
                                   73.00424 (Kcal/Mol)
 Warning -- explicit consideration of   3 degrees of freedom as
           vibrations may cause significant error
 Vibrational temperatures:     68.12   350.22   840.03   971.48  1212.32
          (Kelvin)           1266.01  1306.96  1308.06  1330.38  1395.37
                             1487.77  1568.44  1686.17  1709.19  1712.64
                             1812.29  1816.16  1905.06  1927.44  1967.97
                             2013.34  2144.56  2157.53  2194.91  2210.52
                             4306.03  4312.77  4373.95  4380.23  4408.66
                             4411.74  4452.53  4465.47

 Zero-point correction=                           0.116340 (Hartree/Particle)
 Thermal correction to Energy=                    0.121313
 Thermal correction to Enthalpy=                  0.122257
 Thermal correction to Gibbs Free Energy=         0.088484
 Sum of electronic and zero-point Energies=           -232.429872
 Sum of electronic and thermal Energies=              -232.424899
 Sum of electronic and thermal Enthalpies=            -232.423955
 Sum of electronic and thermal Free Energies=         -232.457728

                     E (Thermal)             CV                S
                      KCal/Mol        Cal/Mol-Kelvin    Cal/Mol-Kelvin
 Total                   76.125             17.017             71.082
 Electronic               0.000              0.000              0.000
 Translational            0.889              2.981             38.741
 Rotational               0.889              2.981             23.520
 Vibrational             74.348             11.055              8.821
 Vibration     1          0.595              1.979              4.925
 Vibration     2          0.659              1.774              1.778
 Vibration     3          0.941              1.066              0.478

 Optimization completed.
    -- Stationary point found.
 Normal termination of Gaussian 16 at Fri Sep 29 16:39:12 2023.
 Gaussian 16:  ES64L-G16RevB.01 20-Dec-2017

 ---------------------------------
 # rohf/gen geom=check guess=check
 ---------------------------------

 ---------------------------------
 tetrahydrofuran, ROHF/cc-pVTZ-F12
 ---------------------------------
 Structure from the checkpoint file:  "THF.chk"
 Charge =  0 Multiplicity = 1

                         Standard orientation:
 ---------------------------------------------------------------------
 Center     Atomic      Atomic             Coordinates (Angstroms)
 Number     Number       Type             X           Y           Z
 ---------------------------------------------------------------------
      1          8           0        0.000000    0.000000    1.249000
      2          6           0        0.000000    1.174701    0.428929
      3          6           0       -0.000000   -1.174701    0.428929
      4          6           0        0.301354    0.704856   -0.994124
      5          6           0       -0.301354   -0.704856   -0.994124
      6          1           0       -0.743924   -1.870619    0.818688
      7          1           0        0.743924    1.870619    0.818688
      8          1           0       -0.982705    1.654815    0.488225
      9          1           0        0.982705   -1.654815    0.488225
     10          1           0        1.379058    0.656930   -1.160130
     11          1           0       -1.379058   -0.656930   -1.160130
     12          1           0       -0.128476    1.358840   -1.751615
     13          1           0        0.128476   -1.358840   -1.751615
 ---------------------------------------------------------------------

 SCF Done:  E(ROHF) =  -231.074325138     A.U. after   10 cycles

 The electronic state is 1-A.
 Alpha  occ. eigenvalues --  -20.54103 -11.26761 -11.26758 -11.22471 -11.22410
 Alpha  occ. eigenvalues --   -1.36197  -1.05877  -0.99035  -0.80979  -0.80873
 Alpha  occ. eigenvalues --   -0.68234  -0.67108  -0.59074  -0.58935  -0.56098
 Alpha  occ. eigenvalues --   -0.50260  -0.49323  -0.47592  -0.46396  -0.40779
 Alpha virt. eigenvalues --    0.04821   0.04993   0.05463   0.05733   0.07853
 Alpha virt. eigenvalues --    0.08841   0.08919   0.09112   0.09181   0.11623
 Alpha virt. eigenvalues --    0.12468   0.12966   0.13239   0.17165   0.17405

 Mulliken charges and spin densities:
               1          2
     1  O   -0.590035   0.000000
     2  C    0.072776   0.000000
     3  C    0.072776   0.000000
     4  C   -0.122007   0.000000
     5  C   -0.122007   0.000000
     6  H    0.095891   0.000000
     7  H    0.095891   0.000000
     8  H    0.099046   0.000000
     9  H    0.099046   0.000000
    10  H    0.078515   0.000000
    11  H    0.078515   0.000000
    12  H    0.070796   0.000000
    13  H    0.070796   0.000000
 Sum of Mulliken charges =  -0.00000   0.00000

 Dipole moment (field-independent basis, Debye):
    X=             -0.0000    Y=              0.0000    Z=             -1.9651  Tot=              1.9651
 Quadrupole moment (field-independent basis, Debye-Ang):
   XX=            -30.9551   YY=            -29.2709   ZZ=            -35.3400
   XY=              0.0239   XZ=              0.0000   YZ=              0.0000

 Normal termination of Gaussian 16 at Fri Sep 29 16:41:42 2023.
