 Gaussian 16, Revision B.01,
 Gaussian 16:  ES64L-G16RevB.01 20-Dec-2017

 --------------------
 # b3lyp/gen opt freq
 --------------------

 ------------------------------
 tetrahydrofuran, B3LYP/pcseg-2
 ------------------------------
 Symbolic Z-matrix:
 Charge =  0 Multiplicity = 1

 SCF Done:  E(RB3LYP) =  -232.545070116     A.U. after   12 cycles
 SCF Done:  E(RB3LYP) =  -232.546129051     A.U. after    9 cycles
 SCF Done:  E(RB3LYP) =  -232.546199512     A.U. after    7 cycles
 SCF Done:  E(RB3LYP) =  -232.546211523     A.U. after    7 cycles
 SCF Done:  E(RB3LYP) =  -232.546211956     A.U. after    6 cycles
 Optimization completed.
    -- Stationary point found.
 Normal termination of Gaussian 16 at Tue Feb  8 08:37:41 2022.

 ------------------------------------------------------------------
 #N Geom=AllCheck Guess=TCheck SCRF=Check GenChk RB3LYP/ChkBas Freq
 ------------------------------------------------------------------

 Structure from the checkpoint file:  "/wrk/irikura/Gau-28827.chk"
 ------------------------------
 tetrahydrofuran, B3LYP/pcseg-2
 ------------------------------
 Charge =  0 Multiplicity = 1

                         Standard orientation:
 ---------------------------------------------------------------------
 Center     Atomic      Atomic             Coordinates (Angstroms)
 Number     Number       Type             X           Y           Z
 ---------------------------------------------------------------------
      1          8           0       -0.000000   -0.000000    1.249000
      2          6           0       -0.000000    1.174701    0.428929
      3          6           0       -0.000000   -1.174701    0.428929
      4          6           0        0.301354    0.704856   -0.994124
      5          6           0       -0.301354   -0.704856   -0.994124
      6          1           0       -0.743924   -1.870619    0.818688
      7          1           0        0.743924    1.870619    0.818688
      8          1           0       -0.982705    1.654815    0.488225
      9          1           0        0.982705   -1.654815    0.488225
     10          1           0        1.379058    0.656930   -1.160130
     11          1           0       -1.379058   -0.656930   -1.160130
     12          1           0       -0.128476    1.358840   -1.751615
     13          1           0        0.128476   -1.358840   -1.751615
 ---------------------------------------------------------------------

 SCF Done:  E(RB3LYP) =  -232.546211956     A.U. after    1 cycles

 The electronic state is 1-A.
 Alpha  occ. eigenvalues --  -19.11414 -10.21313 -10.21312 -10.17462 -10.17439
 Alpha  occ. eigenvalues --   -1.02720  -0.78723  -0.73814  -0.59886  -0.59294
 Alpha  occ. eigenvalues --   -0.50483  -0.49382  -0.43236  -0.43116  -0.40697
 Alpha  occ. eigenvalues --   -0.36076  -0.35591  -0.33901  -0.31872  -0.25079
 Alpha virt. eigenvalues --    0.01078   0.03539   0.04178   0.05140   0.07332
 Alpha virt. eigenvalues --    0.07952   0.08429   0.09306   0.10750   0.13062
 Alpha virt. eigenvalues --    0.15510   0.15545   0.17800   0.17919   0.19351

 Mulliken charges:
               1
     1  O   -0.466727
     2  C    0.217258
     3  C    0.217258
     4  C   -0.102336
     5  C   -0.102336
     6  H    0.026727
     7  H    0.026727
     8  H    0.008984
     9  H    0.008984
    10  H    0.037791
    11  H    0.037791
    12  H    0.044940
    13  H    0.044940
 Sum of Mulliken charges =  -0.00000

 Dipole moment (field-independent basis, Debye):
    X=             -0.0000    Y=              0.0000    Z=             -1.8635  Tot=              1.8635
 Quadrupole moment (field-independent basis, Debye-Ang):
   XX=            -31.2264   YY=            -29.6438   ZZ=            -35.2984
   XY=              0.0796   XZ=             -0.0000   YZ=             -0.0000

  Exact polarizability:  45.893   0.518  55.981   0.000  -0.000  49.877
 Approx polarizability:  65.689  -0.161  72.662  -0.000  -0.000  67.338

                      1                      2                      3
                      B                      A                      B
 Frequencies --     47.3597               243.4172               583.8501
 Red. masses --      2.3760                 1.5992                 1.7507
 Frc consts  --      0.0031                 0.0558                 0.3516
 IR Inten    --      5.0729                 0.0101                 0.5965

                      4                      5                      6
                      A                      A                      B
 Frequencies --    675.2100               842.6117               879.9248
 Red. masses --      3.3229                 1.6656                 1.9792
 Frc consts  --      0.8926                 0.6968                 0.9029
 IR Inten    --      3.7449                 6.5699                 7.5804

                      7                      8                      9
                      B                      A                      A
 Frequencies --    908.3909               909.1481               924.6637
 Red. masses --      1.7588                 3.7972                 2.6044
 Frc consts  --      0.8551                 1.8492                 1.3120
 IR Inten    --      5.8747                21.6116                 8.9932

                     10                     11                     12
                      B                      A                      B
 Frequencies --    969.8341              1034.0525              1090.1201
 Red. masses --      1.3647                 1.8275                 7.1167
 Frc consts  --      0.7563                 1.1513                 4.9828
 IR Inten    --      0.4195                 5.2694               112.8514

                     13                     14                     15
                      A                      B                      A
 Frequencies --   1171.9449              1187.9503              1190.3482
 Red. masses --      1.7707                 1.2511                 1.4522
 Frc consts  --      1.4329                 1.0403                 1.2124
 IR Inten    --      0.0354                 4.3160                 6.3438

                     16                     17                     18
                      A                      B                      B
 Frequencies --   1259.6054              1262.2946              1324.0867
 Red. masses --      1.1654                 1.2342                 1.3897
 Frc consts  --      1.0894                 1.1587                 1.4355
 IR Inten    --      0.1219                 6.8784                 1.0912

                     19                     20                     21
                      A                      B                      A
 Frequencies --   1339.6359              1367.8049              1399.3421
 Red. masses --      1.2429                 1.2758                 1.3390
 Frc consts  --      1.3142                 1.4064                 1.5449
 IR Inten    --      0.6768                 0.0181                 2.9024

                     22                     23                     24
                      B                      A                      B
 Frequencies --   1490.5493              1499.5583              1525.5404
 Red. masses --      1.0896                 1.0997                 1.0865
 Frc consts  --      1.4263                 1.4570                 1.4898
 IR Inten    --      3.6607                 4.9507                 0.5743

                     25                     26                     27
                      A                      B                      A
 Frequencies --   1536.3899              2992.8368              2997.5214
 Red. masses --      1.0982                 1.0690                 1.0720
 Frc consts  --      1.5274                 5.6416                 5.6751
 IR Inten    --      0.0117               136.4521                 2.6060

                     28                     29                     30
                      A                      B                      B
 Frequencies --   3040.0480              3044.4106              3064.1760
 Red. masses --      1.0698                 1.0644                 1.0905
 Frc consts  --      5.8254                 5.8127                 6.0324
 IR Inten    --     18.3843                 9.8109               102.5807

                     31                     32                     33
                      A                      A                      B
 Frequencies --   3066.3178              3094.6595              3103.6597
 Red. masses --      1.0914                 1.0978                 1.1057
 Frc consts  --      6.0461                 6.1943                 6.2753
 IR Inten    --      1.3091                18.8244                50.5980

 - Thermochemistry -
 -------------------
 Temperature   298.150 Kelvin.  Pressure   1.00000 Atm.
 Atom     1 has atomic number  8 and mass  15.99491

 Molecular mass:    72.05751 amu.
 Principal axes and moments of inertia in atomic units:
                           1         2         3
     Eigenvalues --   254.66915 257.44325 451.99969
           X            0.00000   0.11267   0.99363
           Y            0.00000   0.99363  -0.11267
           Z            1.00000   0.00000   0.00000
 This molecule is an asymmetric top.
 Rotational symmetry number  2.
 Rotational temperatures (Kelvin)      0.34010     0.33644     0.19162
 Rotational constants (GHZ):           7.08661     7.01025     3.99279
 Zero-point vibrational energy     305450.1 (Joules/Mol)
                                   73.00432 (Kcal/Mol)
 Warning -- explicit consideration of   3 degrees of freedom as
           vibrations may cause significant error
 Vibrational temperatures:     68.14   350.22   840.03   971.48  1212.33
          (Kelvin)           1266.02  1306.97  1308.06  1330.38  1395.37
                             1487.77  1568.44  1686.17  1709.20  1712.65
                             1812.29  1816.16  1905.07  1927.44  1967.97
                             2013.34  2144.57  2157.53  2194.91  2210.52
                             4306.02  4312.76  4373.95  4380.23  4408.67
                             4411.75  4452.52  4465.47

 Zero-point correction=                           0.116340 (Hartree/Particle)
 Thermal correction to Energy=                    0.121313
 Thermal correction to Enthalpy=                  0.122258
 Thermal correction to Gibbs Free Energy=         0.088484
 Sum of electronic and zero-point Energies=           -232.429872
 Sum of electronic and thermal Energies=              -232.424899
 Sum of electronic and thermal Enthalpies=            -232.423954
 Sum of electronic and thermal Free Energies=         -232.457728

                     E (Thermal)             CV                S
                      KCal/Mol        Cal/Mol-Kelvin    Cal/Mol-Kelvin
 Total                   76.125             17.017             71.082
 Electronic               0.000              0.000              0.000
 Translational            0.889              2.981             38.741
 Rotational               0.889              2.981             23.520
 Vibrational             74.348             11.055              8.821
 Vibration     1          0.595              1.979              4.925
 Vibration     2          0.659              1.774              1.778
 Vibration     3          0.941              1.066              0.478

 Optimization completed.
    -- Stationary point found.
 Normal termination of Gaussian 16 at Tue Feb  8 08:42:25 2022.
