 Gaussian 16, Revision B.01,
 Gaussian 16:  ES64L-G16RevB.01 20-Dec-2017

 --------------------
 # b3lyp/gen opt freq
 --------------------

 ------------------------
 thiophene, B3LYP/pcseg-2
 ------------------------
 Symbolic Z-matrix:
 Charge =  0 Multiplicity = 1

 SCF Done:  E(RB3LYP) =  -553.107329240     A.U. after   13 cycles
 SCF Done:  E(RB3LYP) =  -553.107505505     A.U. after    9 cycles
 SCF Done:  E(RB3LYP) =  -553.107522752     A.U. after    8 cycles
 SCF Done:  E(RB3LYP) =  -553.107524359     A.U. after    7 cycles
 Optimization completed.
    -- Stationary point found.
 Normal termination of Gaussian 16 at Tue Mar  1 12:57:26 2022.

 ------------------------------------------------------------------
 #N Geom=AllCheck Guess=TCheck SCRF=Check GenChk RB3LYP/ChkBas Freq
 ------------------------------------------------------------------

 Structure from the checkpoint file:  "/wrk/irikura/Gau-6368.chk"
 ------------------------
 thiophene, B3LYP/pcseg-2
 ------------------------
 Charge =  0 Multiplicity = 1

                         Standard orientation:
 ---------------------------------------------------------------------
 Center     Atomic      Atomic             Coordinates (Angstroms)
 Number     Number       Type             X           Y           Z
 ---------------------------------------------------------------------
      1         16           0        0.000000   -0.000000    1.189661
      2          6           0        0.000000    1.236304   -0.007111
      3          6           0       -0.000000   -1.236304   -0.007111
      4          6           0        0.000000    0.711381   -1.266142
      5          6           0       -0.000000   -0.711381   -1.266142
      6          1           0        0.000000    2.272860    0.283817
      7          1           0       -0.000000   -2.272860    0.283817
      8          1           0        0.000000    1.314542   -2.161594
      9          1           0       -0.000000   -1.314542   -2.161594
 ---------------------------------------------------------------------

 SCF Done:  E(RB3LYP) =  -553.107524359     A.U. after    1 cycles

 The electronic state is 1-A1.
 Alpha  occ. eigenvalues --  -88.87007 -10.19949 -10.19948 -10.17916 -10.17868
 Alpha  occ. eigenvalues --   -7.96210  -5.92413  -5.92054  -5.91867  -0.88432
 Alpha  occ. eigenvalues --   -0.73802  -0.72856  -0.56908  -0.55725  -0.52117
 Alpha  occ. eigenvalues --   -0.41953  -0.39967  -0.39237  -0.38677  -0.34860
 Alpha  occ. eigenvalues --   -0.25876  -0.24608
 Alpha virt. eigenvalues --   -0.02396   0.01662   0.02235   0.04223   0.04937
 Alpha virt. eigenvalues --    0.05466   0.08202   0.08289   0.13256   0.16227
 Alpha virt. eigenvalues --    0.16751   0.17062   0.19604   0.19956   0.22419

 Mulliken charges:
               1
     1  S    0.108472
     2  C   -0.105489
     3  C   -0.105489
     4  C   -0.060874
     5  C   -0.060874
     6  H    0.079619
     7  H    0.079619
     8  H    0.032508
     9  H    0.032508
 Sum of Mulliken charges =   0.00000

 Dipole moment (field-independent basis, Debye):
    X=              0.0000    Y=             -0.0000    Z=             -0.4793  Tot=              0.4793
 Quadrupole moment (field-independent basis, Debye-Ang):
   XX=            -40.4503   YY=            -31.9691   ZZ=            -35.1028
   XY=              0.0000   XZ=              0.0000   YZ=             -0.0000

  Exact polarizability:  37.454   0.000  67.137  -0.000  -0.000  73.181
 Approx polarizability:  58.461   0.000 113.922  -0.000  -0.000 129.092

                      1                      2                      3
                     B1                     A2                     A1
 Frequencies --    462.3776               579.1860               616.9849
 Red. masses --      4.6888                 3.0097                 9.7887
 Frc consts  --      0.5906                 0.5949                 2.1954
 IR Inten    --      0.8417                 0.0000                 0.1562

                      4                      5                      6
                     A2                     B1                     B2
 Frequencies --    696.4335               727.0852               755.3942
 Red. masses --      1.2628                 1.1093                 7.0666
 Frc consts  --      0.3609                 0.3455                 2.3758
 IR Inten    --      0.0000               137.0926                 0.4282

                      7                      8                      9
                     A1                     B2                     B1
 Frequencies --    842.5428               882.0144               893.5200
 Red. masses --      4.2322                 4.2537                 1.2440
 Frc consts  --      1.7701                 1.9497                 0.5852
 IR Inten    --     23.7021                 1.5268                 0.2493

                     10                     11                     12
                     A2                     A1                     A1
 Frequencies --    932.9182              1055.6259              1106.5378
 Red. masses --      1.3472                 1.9692                 1.0907
 Frc consts  --      0.6908                 1.2929                 0.7869
 IR Inten    --      0.0000                 3.0245                 3.8470

                     13                     14                     15
                     B2                     B2                     A1
 Frequencies --   1107.4030              1284.7356              1396.2305
 Red. masses --      1.1588                 1.3906                 2.3621
 Frc consts  --      0.8372                 1.3523                 2.7131
 IR Inten    --      4.8143                 9.5606                 1.1080

                     16                     17                     18
                     A1                     B2                     B2
 Frequencies --   1439.7160              1550.0869              3202.3982
 Red. masses --      4.6323                 4.4117                 1.0877
 Frc consts  --      5.6572                 6.2455                 6.5724
 IR Inten    --      8.5343                 0.0852                 3.6125

                     19                     20                     21
                     A1                     B2                     A1
 Frequencies --   3215.6026              3250.0288              3252.4020
 Red. masses --      1.0936                 1.0947                 1.0993
 Frc consts  --      6.6622                 6.8127                 6.8513
 IR Inten    --      3.7654                 0.0269                 1.3070

 - Thermochemistry -
 -------------------
 Temperature   298.150 Kelvin.  Pressure   1.00000 Atm.
 Atom     1 has atomic number 16 and mass  31.97207

 Molecular mass:    84.00337 amu.
 Principal axes and moments of inertia in atomic units:
                           1         2         3
     Eigenvalues --   223.99121 332.62317 556.61438
           X            0.00000  -0.00000   1.00000
           Y            0.00000   1.00000  -0.00000
           Z            1.00000  -0.00000  -0.00000
 This molecule is an asymmetric top.
 Rotational symmetry number  2.
 Rotational temperatures (Kelvin)      0.38668     0.26040     0.15561
 Rotational constants (GHZ):           8.05720     5.42578     3.24235
 Zero-point vibrational energy     174949.2 (Joules/Mol)
                                   41.81387 (Kcal/Mol)
 Warning -- explicit consideration of   3 degrees of freedom as
           vibrations may cause significant error
 Vibrational temperatures:    665.26   833.32   887.70  1002.01  1046.11
          (Kelvin)           1086.84  1212.23  1269.02  1285.58  1342.26
                             1518.81  1592.06  1593.31  1848.45  2008.86
                             2071.43  2230.23  4607.54  4626.53  4676.07
                             4679.48

 Zero-point correction=                           0.066635 (Hartree/Particle)
 Thermal correction to Energy=                    0.070688
 Thermal correction to Enthalpy=                  0.071632
 Thermal correction to Gibbs Free Energy=         0.040078
 Sum of electronic and zero-point Energies=           -553.040890
 Sum of electronic and thermal Energies=              -553.036837
 Sum of electronic and thermal Enthalpies=            -553.035893
 Sum of electronic and thermal Free Energies=         -553.067447

                     E (Thermal)             CV                S
                      KCal/Mol        Cal/Mol-Kelvin    Cal/Mol-Kelvin
 Total                   44.357             15.069             66.411
 Electronic               0.000              0.000              0.000
 Translational            0.889              2.981             39.198
 Rotational               0.889              2.981             23.854
 Vibrational             42.580              9.108              3.359
 Vibration     1          0.820              1.334              0.759
 Vibration     2          0.936              1.076              0.487
 Vibration     3          0.977              0.996              0.421

 Optimization completed.
    -- Stationary point found.
 Normal termination of Gaussian 16 at Tue Mar  1 12:58:46 2022.
