 Gaussian 16, Revision B.01,

 ---------------------------------------
 # b3lyp/gen opt freq CPHF(Grid=OneStep)
 ---------------------------------------

 ------------------------
 thiophene, B3LYP/pcseg-2
 ------------------------
 Symbolic Z-matrix:
 Charge =  0 Multiplicity = 1

 SCF Done:  E(RB3LYP) =  -553.107524359     A.U. after   12 cycles
 Optimization completed.
    -- Stationary point found.
 Normal termination of Gaussian 16 at Fri Sep 29 06:31:52 2023.

 ------------------------------------------------------------------
 #N Geom=AllCheck Guess=TCheck SCRF=Check GenChk RB3LYP/ChkBas Freq
 ------------------------------------------------------------------

 Structure from the checkpoint file:  "thiophene.chk"
 ------------------------
 thiophene, B3LYP/pcseg-2
 ------------------------
 Charge =  0 Multiplicity = 1

 SCF Done:  E(RB3LYP) =  -553.107524359     A.U. after    1 cycles

  Exact polarizability:  37.454   0.000  67.137  -0.000  -0.000  73.179
 Approx polarizability:  58.461   0.000 113.922  -0.000   0.000 129.092

                      1                      2                      3
                     B1                     A2                     A1
 Frequencies --    462.3738               579.1821               616.9850
 Red. masses --      4.6888                 3.0096                 9.7887
 Frc consts  --      0.5906                 0.5948                 2.1955
 IR Inten    --      0.8418                 0.0000                 0.1563

                      4                      5                      6
                     A2                     B1                     B2
 Frequencies --    696.4228               727.0788               755.3943
 Red. masses --      1.2628                 1.1093                 7.0665
 Frc consts  --      0.3608                 0.3455                 2.3758
 IR Inten    --      0.0000               137.0886                 0.4279

                      7                      8                      9
                     A1                     B2                     B1
 Frequencies --    842.5485               882.0138               893.5162
 Red. masses --      4.2321                 4.2537                 1.2440
 Frc consts  --      1.7701                 1.9497                 0.5852
 IR Inten    --     23.6995                 1.5259                 0.2495

                     10                     11                     12
                     A2                     A1                     A1
 Frequencies --    932.9151              1055.6231              1106.5369
 Red. masses --      1.3472                 1.9692                 1.0907
 Frc consts  --      0.6908                 1.2929                 0.7869
 IR Inten    --      0.0000                 3.0252                 3.8466

                     13                     14                     15
                     B2                     B2                     A1
 Frequencies --   1107.4007              1284.7338              1396.2299
 Red. masses --      1.1588                 1.3906                 2.3620
 Frc consts  --      0.8372                 1.3523                 2.7130
 IR Inten    --      4.8140                 9.5621                 1.1068

                     16                     17                     18
                     A1                     B2                     B2
 Frequencies --   1439.7156              1550.0824              3202.4039
 Red. masses --      4.6327                 4.4117                 1.0877
 Frc consts  --      5.6576                 6.2455                 6.5724
 IR Inten    --      8.5330                 0.0851                 3.6136

                     19                     20                     21
                     A1                     B2                     A1
 Frequencies --   3215.6088              3250.0347              3252.4088
 Red. masses --      1.0936                 1.0947                 1.0993
 Frc consts  --      6.6623                 6.8127                 6.8514
 IR Inten    --      3.7662                 0.0270                 1.3067

 - Thermochemistry -
 -------------------
 Temperature   298.150 Kelvin.  Pressure   1.00000 Atm.
 Atom     1 has atomic number 16 and mass  31.97207

 Molecular mass:    84.00337 amu.
 Principal axes and moments of inertia in atomic units:
                           1         2         3
     Eigenvalues --   223.99136 332.62314 556.61450
           X            0.00000   0.00000   1.00000
           Y            0.00000   1.00000   0.00000
           Z            1.00000   0.00000   0.00000
 This molecule is an asymmetric top.
 Rotational symmetry number  2.
 Rotational temperatures (Kelvin)      0.38668     0.26040     0.15561
 Rotational constants (GHZ):           8.05719     5.42578     3.24235
 Zero-point vibrational energy     174949.1 (Joules/Mol)
                                   41.81384 (Kcal/Mol)
 Warning -- explicit consideration of   3 degrees of freedom as
           vibrations may cause significant error
 Vibrational temperatures:    665.25   833.31   887.70  1002.00  1046.10
          (Kelvin)           1086.84  1212.24  1269.02  1285.57  1342.26
                             1518.81  1592.06  1593.30  1848.45  2008.86
                             2071.43  2230.22  4607.55  4626.54  4676.08
                             4679.49

 Zero-point correction=                           0.066635 (Hartree/Particle)
 Thermal correction to Energy=                    0.070688
 Thermal correction to Enthalpy=                  0.071632
 Thermal correction to Gibbs Free Energy=         0.040078
 Sum of electronic and zero-point Energies=           -553.040890
 Sum of electronic and thermal Energies=              -553.036837
 Sum of electronic and thermal Enthalpies=            -553.035893
 Sum of electronic and thermal Free Energies=         -553.067447

                     E (Thermal)             CV                S
                      KCal/Mol        Cal/Mol-Kelvin    Cal/Mol-Kelvin
 Total                   44.357             15.069             66.411
 Electronic               0.000              0.000              0.000
 Translational            0.889              2.981             39.198
 Rotational               0.889              2.981             23.854
 Vibrational             42.580              9.108              3.359
 Vibration     1          0.820              1.334              0.759
 Vibration     2          0.936              1.076              0.487
 Vibration     3          0.977              0.996              0.421

 Optimization completed.
    -- Stationary point found.
 Normal termination of Gaussian 16 at Fri Sep 29 06:34:52 2023.
 Gaussian 16:  ES64L-G16RevB.01 20-Dec-2017

 ---------------------------------
 # rohf/gen geom=check guess=check
 ---------------------------------

 ---------------------------
 thiophene, ROHF/cc-pVTZ-F12
 ---------------------------
 Structure from the checkpoint file:  "thiophene.chk"
 Charge =  0 Multiplicity = 1

                         Standard orientation:
 ---------------------------------------------------------------------
 Center     Atomic      Atomic             Coordinates (Angstroms)
 Number     Number       Type             X           Y           Z
 ---------------------------------------------------------------------
      1         16           0        0.000000   -0.000000    1.189661
      2          6           0        0.000000    1.236304   -0.007111
      3          6           0       -0.000000   -1.236304   -0.007111
      4          6           0       -0.000000    0.711381   -1.266142
      5          6           0       -0.000000   -0.711381   -1.266142
      6          1           0        0.000000    2.272860    0.283817
      7          1           0       -0.000000   -2.272860    0.283817
      8          1           0       -0.000000    1.314542   -2.161594
      9          1           0       -0.000000   -1.314542   -2.161594
 ---------------------------------------------------------------------

 SCF Done:  E(ROHF) =  -551.395696440     A.U. after   12 cycles

 The electronic state is 1-A1.
 Alpha  occ. eigenvalues --  -91.98118 -11.26049 -11.26046 -11.23779 -11.23676
 Alpha  occ. eigenvalues --   -8.98245  -6.66367  -6.66332  -6.66272  -1.17136
 Alpha  occ. eigenvalues --   -0.98499  -0.98420  -0.76811  -0.75115  -0.69869
 Alpha  occ. eigenvalues --   -0.57774  -0.55238  -0.52824  -0.52370  -0.47446
 Alpha  occ. eigenvalues --   -0.34626  -0.32894
 Alpha virt. eigenvalues --    0.05052   0.05061   0.05684   0.06786   0.07041
 Alpha virt. eigenvalues --    0.08352   0.09638   0.10596   0.10818   0.11255
 Alpha virt. eigenvalues --    0.12089   0.12186   0.12497   0.13204   0.13913

 Mulliken charges and spin densities:
               1          2
     1  S    0.312774   0.000000
     2  C   -0.313687   0.000000
     3  C   -0.313687   0.000000
     4  C   -0.196782   0.000000
     5  C   -0.196782   0.000000
     6  H    0.191271   0.000000
     7  H    0.191271   0.000000
     8  H    0.162811   0.000000
     9  H    0.162811   0.000000
 Sum of Mulliken charges =  -0.00000   0.00000

 Dipole moment (field-independent basis, Debye):
    X=             -0.0000    Y=              0.0000    Z=             -0.7531  Tot=              0.7531
 Quadrupole moment (field-independent basis, Debye-Ang):
   XX=            -41.1963   YY=            -31.6179   ZZ=            -35.2484
   XY=              0.0000   XZ=              0.0000   YZ=              0.0000

 Normal termination of Gaussian 16 at Fri Sep 29 06:36:34 2023.
