 Gaussian 16, Revision B.01,
 Gaussian 16:  ES64L-G16RevB.01 20-Dec-2017

 -------------------------------
 # b3lyp/gen opt freq symm=loose
 -------------------------------

 ------------------------------
 tetrahydropyran, B3LYP/pcseg-2
 ------------------------------
 Symbolic Z-matrix:
 Charge =  0 Multiplicity = 1

 SCF Done:  E(RB3LYP) =  -271.881150954     A.U. after   12 cycles
 SCF Done:  E(RB3LYP) =  -271.881155002     A.U. after    7 cycles
 SCF Done:  E(RB3LYP) =  -271.881155326     A.U. after    6 cycles
 Optimization completed.
    -- Stationary point found.
 Normal termination of Gaussian 16 at Thu Feb 24 16:07:41 2022.

 ------------------------------------------------------------------
 #N Geom=AllCheck Guess=TCheck SCRF=Check GenChk RB3LYP/ChkBas Freq
 ------------------------------------------------------------------

 Structure from the checkpoint file:  "/wrk/irikura/Gau-23651.chk"
 ------------------------------
 tetrahydropyran, B3LYP/pcseg-2
 ------------------------------
 Charge =  0 Multiplicity = 1

                         Standard orientation:
 ---------------------------------------------------------------------
 Center     Atomic      Atomic             Coordinates (Angstroms)
 Number     Number       Type             X           Y           Z
 ---------------------------------------------------------------------
      1          8           0       -0.655248   -1.267096    0.000000
      2          6           0        0.621190    1.326160   -0.000000
      3          1           0        1.692615    1.099949    0.000000
      4          1           0        0.531500    2.413921   -0.000000
      5          6           0       -0.021098    0.729452    1.256478
      6          6           0       -0.021098    0.729452   -1.256478
      7          6           0       -0.021098   -0.794439   -1.181380
      8          6           0       -0.021098   -0.794439    1.181380
      9          1           0        0.508516    1.050940    2.156482
     10          1           0        0.508516    1.050940   -2.156482
     11          1           0       -1.053457    1.077733    1.346035
     12          1           0       -1.053457    1.077733   -1.346035
     13          1           0        1.011856   -1.171214   -1.218431
     14          1           0        1.011856   -1.171214    1.218431
     15          1           0       -0.568378   -1.234568   -2.014054
     16          1           0       -0.568378   -1.234568    2.014054
 ---------------------------------------------------------------------

 SCF Done:  E(RB3LYP) =  -271.881155326     A.U. after    1 cycles

 The electronic state is 1-A'.
 Alpha  occ. eigenvalues --  -19.11917 -10.21310 -10.21310 -10.17030 -10.16747
 Alpha  occ. eigenvalues --  -10.16746  -1.03123  -0.80056  -0.76338  -0.64489
 Alpha  occ. eigenvalues --   -0.63687  -0.56408  -0.49794  -0.47429  -0.45519
 Alpha  occ. eigenvalues --   -0.44401  -0.42249  -0.39081  -0.38216  -0.35676
 Alpha  occ. eigenvalues --   -0.33966  -0.32760  -0.30257  -0.25509
 Alpha virt. eigenvalues --    0.01486   0.03200   0.03577   0.04626   0.06907
 Alpha virt. eigenvalues --    0.07178   0.07781   0.08035   0.09594   0.10305
 Alpha virt. eigenvalues --    0.11202   0.13092   0.16136   0.17780   0.18228

 Mulliken charges:
               1
     1  O   -0.458444
     2  C   -0.103035
     3  H    0.030714
     4  H    0.038154
     5  C   -0.013027
     6  C   -0.013027
     7  C    0.171934
     8  C    0.171934
     9  H    0.024488
    10  H    0.024488
    11  H    0.023308
    12  H    0.023308
    13  H    0.007292
    14  H    0.007292
    15  H    0.032311
    16  H    0.032311
 Sum of Mulliken charges =  -0.00000

 Dipole moment (field-independent basis, Debye):
    X=              1.0065    Y=              1.1357    Z=             -0.0000  Tot=              1.5175
 Quadrupole moment (field-independent basis, Debye-Ang):
   XX=            -39.6300   YY=            -40.9139   ZZ=            -35.9772
   XY=             -1.7279   XZ=             -0.0000   YZ=              0.0000

  Exact polarizability:  57.608   0.763  62.721  -0.000   0.000  68.311
 Approx polarizability:  86.586   0.007  83.119   0.000  -0.000  88.607

                      1                      2                      3
                     A"                     A'                     A'
 Frequencies --    239.2578               243.8191               394.8054
 Red. masses --      1.7542                 2.1291                 1.7391
 Frc consts  --      0.0592                 0.0746                 0.1597
 IR Inten    --      0.3270                 3.8320                 4.1210

                      4                      5                      6
                     A'                     A"                     A'
 Frequencies --    438.3814               467.0131               567.3624
 Red. masses --      3.7117                 2.8099                 1.5472
 Frc consts  --      0.4203                 0.3611                 0.2934
 IR Inten    --      1.6647                 0.0016                 3.9522

                      7                      8                      9
                     A'                     A"                     A'
 Frequencies --    820.8302               821.0315               866.5277
 Red. masses --      3.5910                 1.5214                 1.4119
 Frc consts  --      1.4255                 0.6042                 0.6246
 IR Inten    --      2.7970                 1.2246                 4.5183

                     10                     11                     12
                     A'                     A"                     A"
 Frequencies --    879.8177               881.3157               985.1209
 Red. masses --      2.8317                 2.4891                 1.2631
 Frc consts  --      1.2915                 1.1391                 0.7222
 IR Inten    --     24.8842                 0.6336                 3.3020

                     13                     14                     15
                     A'                     A'                     A"
 Frequencies --   1017.7656              1049.4054              1062.4216
 Red. masses --      1.9707                 2.4502                 1.5613
 Frc consts  --      1.2027                 1.5898                 1.0383
 IR Inten    --     10.7597                 8.1317                15.8568

                     16                     17                     18
                     A"                     A'                     A"
 Frequencies --   1102.9555              1179.3669              1193.3021
 Red. masses --      4.8547                 2.2202                 1.2474
 Frc consts  --      3.4796                 1.8194                 1.0465
 IR Inten    --     77.3809                 2.9393                 0.0186

                     19                     20                     21
                     A"                     A'                     A"
 Frequencies --   1222.6837              1284.1643              1302.4120
 Red. masses --      1.6380                 1.2492                 1.1467
 Frc consts  --      1.4428                 1.2138                 1.1460
 IR Inten    --     34.2119                 5.4777                 7.0516

                     22                     23                     24
                     A'                     A"                     A"
 Frequencies --   1325.1844              1360.6325              1373.6672
 Red. masses --      1.2498                 1.2942                 1.3352
 Frc consts  --      1.2931                 1.4117                 1.4844
 IR Inten    --      4.6578                 0.0580                 0.5762

                     25                     26                     27
                     A'                     A"                     A'
 Frequencies --   1380.9469              1392.8906              1416.4325
 Red. masses --      1.4594                 1.3375                 1.3076
 Frc consts  --      1.6398                 1.5289                 1.5456
 IR Inten    --      1.4912                 4.4180                 6.0958

                     28                     29                     30
                     A"                     A'                     A'
 Frequencies --   1476.7480              1485.3009              1493.7521
 Red. masses --      1.0929                 1.0866                 1.0993
 Frc consts  --      1.4042                 1.4123                 1.4451
 IR Inten    --      2.4990                 6.3200                 6.4440

                     31                     32                     33
                     A"                     A'                     A"
 Frequencies --   1496.2810              1508.6883              2947.2456
 Red. masses --      1.0821                 1.1003                 1.0723
 Frc consts  --      1.4274                 1.4756                 5.4880
 IR Inten    --      0.9644                 3.1465                22.4753

                     34                     35                     36
                     A'                     A'                     A"
 Frequencies --   2953.3168              3007.0042              3022.3795
 Red. masses --      1.0720                 1.0686                 1.0595
 Frc consts  --      5.5090                 5.6929                 5.7023
 IR Inten    --    100.8729                22.9168                30.3331

                     37                     38                     39
                     A'                     A'                     A"
 Frequencies --   3022.7061              3057.4098              3061.1124
 Red. masses --      1.0611                 1.0923                 1.1030
 Frc consts  --      5.7120                 6.0161                 6.0894
 IR Inten    --     17.4703                40.9596                37.1065

                     40                     41                     42
                     A'                     A"                     A'
 Frequencies --   3067.5510              3084.1114              3086.3242
 Red. masses --      1.1037                 1.0905                 1.0923
 Frc consts  --      6.1193                 6.1114                 6.1303
 IR Inten    --     69.1386                50.5737                29.7753

 - Thermochemistry -
 -------------------
 Temperature   298.150 Kelvin.  Pressure   1.00000 Atm.
 Atom     1 has atomic number  8 and mass  15.99491

 Molecular mass:    86.07317 amu.
 Principal axes and moments of inertia in atomic units:
                           1         2         3
     Eigenvalues --   386.98203 400.73414 696.39505
           X            0.29089   0.00000   0.95676
           Y            0.95676   0.00000  -0.29089
           Z           -0.00000   1.00000  -0.00000
 This molecule is an asymmetric top.
 Rotational symmetry number  1.
 Rotational temperatures (Kelvin)      0.22382     0.21614     0.12437
 Rotational constants (GHZ):           4.66363     4.50359     2.59155
 Zero-point vibrational energy     383040.9 (Joules/Mol)
                                   91.54898 (Kcal/Mol)
 Warning -- explicit consideration of   6 degrees of freedom as
           vibrations may cause significant error
 Vibrational temperatures:    344.24   350.80   568.04   630.73   671.93
          (Kelvin)            816.31  1180.99  1181.28  1246.74  1265.86
                             1268.02  1417.37  1464.34  1509.86  1528.59
                             1586.91  1696.85  1716.90  1759.17  1847.63
                             1873.88  1906.64  1957.65  1976.40  1986.87
                             2004.06  2037.93  2124.71  2137.02  2149.18
                             2152.81  2170.67  4240.43  4249.16  4326.41
                             4348.53  4349.00  4398.93  4404.26  4413.52
                             4437.35  4440.53

 Zero-point correction=                           0.145893 (Hartree/Particle)
 Thermal correction to Energy=                    0.151368
 Thermal correction to Enthalpy=                  0.152312
 Thermal correction to Gibbs Free Energy=         0.117291
 Sum of electronic and zero-point Energies=           -271.735263
 Sum of electronic and thermal Energies=              -271.729787
 Sum of electronic and thermal Enthalpies=            -271.728843
 Sum of electronic and thermal Free Energies=         -271.763865

                     E (Thermal)             CV                S
                      KCal/Mol        Cal/Mol-Kelvin    Cal/Mol-Kelvin
 Total                   94.985             21.315             73.709
 Electronic               0.000              0.000              0.000
 Translational            0.889              2.981             39.271
 Rotational               0.889              2.981             26.182
 Vibrational             93.207             15.353              8.255
 Vibration     1          0.657              1.780              1.808
 Vibration     2          0.659              1.773              1.775
 Vibration     3          0.762              1.481              0.982
 Vibration     4          0.799              1.387              0.832
 Vibration     5          0.824              1.323              0.746
 Vibration     6          0.923              1.102              0.509

 Optimization completed.
    -- Stationary point found.
 Normal termination of Gaussian 16 at Thu Feb 24 16:15:53 2022.
