 Gaussian 16, Revision B.01,

 ---------------------------------------
 # b3lyp/gen opt freq CPHF(Grid=OneStep)
 ---------------------------------------

 ------------------------------
 tetrahydropyran, B3LYP/pcseg-2
 ------------------------------
 Symbolic Z-matrix:
 Charge =  0 Multiplicity = 1

 SCF Done:  E(RB3LYP) =  -271.881155326     A.U. after   12 cycles
 Optimization completed.
    -- Stationary point found.
 Normal termination of Gaussian 16 at Thu Sep 28 17:58:01 2023.

 ------------------------------------------------------------------
 #N Geom=AllCheck Guess=TCheck SCRF=Check GenChk RB3LYP/ChkBas Freq
 ------------------------------------------------------------------

 Structure from the checkpoint file:  "THP.chk"
 ------------------------------
 tetrahydropyran, B3LYP/pcseg-2
 ------------------------------
 Charge =  0 Multiplicity = 1

 SCF Done:  E(RB3LYP) =  -271.881155326     A.U. after    1 cycles

  Exact polarizability:  57.608   0.763  62.721  -0.000   0.000  68.311
 Approx polarizability:  86.586   0.007  83.119  -0.000  -0.000  88.607

                      1                      2                      3
                     A"                     A'                     A'
 Frequencies --    239.2582               243.8207               394.8076
 Red. masses --      1.7542                 2.1291                 1.7391
 Frc consts  --      0.0592                 0.0746                 0.1597
 IR Inten    --      0.3270                 3.8321                 4.1205

                      4                      5                      6
                     A'                     A"                     A'
 Frequencies --    438.3802               467.0140               567.3646
 Red. masses --      3.7117                 2.8099                 1.5472
 Frc consts  --      0.4203                 0.3611                 0.2934
 IR Inten    --      1.6644                 0.0016                 3.9524

                      7                      8                      9
                     A'                     A"                     A'
 Frequencies --    820.8337               821.0324               866.5276
 Red. masses --      3.5910                 1.5214                 1.4119
 Frc consts  --      1.4255                 0.6042                 0.6246
 IR Inten    --      2.7972                 1.2242                 4.5190

                     10                     11                     12
                     A'                     A"                     A"
 Frequencies --    879.8213               881.3164               985.1191
 Red. masses --      2.8317                 2.4890                 1.2631
 Frc consts  --      1.2915                 1.1391                 0.7222
 IR Inten    --     24.8848                 0.6339                 3.3025

                     13                     14                     15
                     A'                     A'                     A"
 Frequencies --   1017.7669              1049.4058              1062.4213
 Red. masses --      1.9707                 2.4502                 1.5613
 Frc consts  --      1.2027                 1.5898                 1.0383
 IR Inten    --     10.7604                 8.1319                15.8559

                     16                     17                     18
                     A"                     A'                     A"
 Frequencies --   1102.9539              1179.3674              1193.3000
 Red. masses --      4.8545                 2.2202                 1.2474
 Frc consts  --      3.4795                 1.8194                 1.0465
 IR Inten    --     77.3762                 2.9393                 0.0187

                     19                     20                     21
                     A"                     A'                     A"
 Frequencies --   1222.6831              1284.1619              1302.4130
 Red. masses --      1.6380                 1.2492                 1.1467
 Frc consts  --      1.4428                 1.2138                 1.1460
 IR Inten    --     34.2132                 5.4773                 7.0528

                     22                     23                     24
                     A'                     A"                     A"
 Frequencies --   1325.1841              1360.6323              1373.6667
 Red. masses --      1.2498                 1.2942                 1.3352
 Frc consts  --      1.2931                 1.4117                 1.4845
 IR Inten    --      4.6587                 0.0580                 0.5761

                     25                     26                     27
                     A'                     A"                     A'
 Frequencies --   1380.9473              1392.8915              1416.4328
 Red. masses --      1.4594                 1.3375                 1.3076
 Frc consts  --      1.6398                 1.5289                 1.5456
 IR Inten    --      1.4911                 4.4185                 6.0944

                     28                     29                     30
                     A"                     A'                     A'
 Frequencies --   1476.7381              1485.2981              1493.7422
 Red. masses --      1.0929                 1.0866                 1.0993
 Frc consts  --      1.4042                 1.4123                 1.4451
 IR Inten    --      2.5017                 6.3167                 6.4523

                     31                     32                     33
                     A"                     A'                     A"
 Frequencies --   1496.2847              1508.6888              2947.2500
 Red. masses --      1.0821                 1.1003                 1.0723
 Frc consts  --      1.4274                 1.4756                 5.4880
 IR Inten    --      0.9640                 3.1466                22.4800

                     34                     35                     36
                     A'                     A'                     A"
 Frequencies --   2953.3027              3006.9913              3022.3729
 Red. masses --      1.0720                 1.0686                 1.0595
 Frc consts  --      5.5090                 5.6929                 5.7023
 IR Inten    --    100.8454                22.9185                30.3124

                     37                     38                     39
                     A'                     A'                     A"
 Frequencies --   3022.7087              3057.4129              3061.1052
 Red. masses --      1.0611                 1.0923                 1.1030
 Frc consts  --      5.7120                 6.0161                 6.0894
 IR Inten    --     17.4709                40.9672                37.1257

                     40                     41                     42
                     A'                     A"                     A'
 Frequencies --   3067.5509              3084.1149              3086.3273
 Red. masses --      1.1037                 1.0905                 1.0923
 Frc consts  --      6.1193                 6.1114                 6.1304
 IR Inten    --     69.1396                50.5738                29.7758

 - Thermochemistry -
 -------------------
 Temperature   298.150 Kelvin.  Pressure   1.00000 Atm.
 Atom     1 has atomic number  8 and mass  15.99491

 Molecular mass:    86.07317 amu.
 Principal axes and moments of inertia in atomic units:
                           1         2         3
     Eigenvalues --   386.98211 400.73406 696.39508
           X            0.29089   0.00000   0.95676
           Y            0.95676   0.00000  -0.29089
           Z            0.00000   1.00000   0.00000
 This molecule is an asymmetric top.
 Rotational symmetry number  1.
 Rotational temperatures (Kelvin)      0.22382     0.21614     0.12437
 Rotational constants (GHZ):           4.66363     4.50359     2.59155
 Zero-point vibrational energy     383040.7 (Joules/Mol)
                                   91.54894 (Kcal/Mol)
 Warning -- explicit consideration of   6 degrees of freedom as
           vibrations may cause significant error
 Vibrational temperatures:    344.24   350.80   568.04   630.73   671.93
          (Kelvin)            816.31  1181.00  1181.28  1246.74  1265.87
                             1268.02  1417.37  1464.34  1509.86  1528.59
                             1586.90  1696.85  1716.89  1759.17  1847.62
                             1873.88  1906.64  1957.65  1976.40  1986.88
                             2004.06  2037.93  2124.70  2137.01  2149.16
                             2152.82  2170.67  4240.44  4249.14  4326.39
                             4348.52  4349.00  4398.94  4404.25  4413.52
                             4437.35  4440.54

 Zero-point correction=                           0.145893 (Hartree/Particle)
 Thermal correction to Energy=                    0.151368
 Thermal correction to Enthalpy=                  0.152312
 Thermal correction to Gibbs Free Energy=         0.117291
 Sum of electronic and zero-point Energies=           -271.735263
 Sum of electronic and thermal Energies=              -271.729788
 Sum of electronic and thermal Enthalpies=            -271.728843
 Sum of electronic and thermal Free Energies=         -271.763865

                     E (Thermal)             CV                S
                      KCal/Mol        Cal/Mol-Kelvin    Cal/Mol-Kelvin
 Total                   94.985             21.315             73.709
 Electronic               0.000              0.000              0.000
 Translational            0.889              2.981             39.271
 Rotational               0.889              2.981             26.182
 Vibrational             93.207             15.353              8.255
 Vibration     1          0.657              1.780              1.808
 Vibration     2          0.659              1.773              1.775
 Vibration     3          0.762              1.481              0.982
 Vibration     4          0.799              1.387              0.832
 Vibration     5          0.824              1.323              0.746
 Vibration     6          0.923              1.102              0.509

 Optimization completed.
    -- Stationary point found.
 Normal termination of Gaussian 16 at Thu Sep 28 18:19:59 2023.
 Gaussian 16:  ES64L-G16RevB.01 20-Dec-2017

 ---------------------------------
 # rohf/gen geom=check guess=check
 ---------------------------------

 ---------------------------------
 tetrahydropyran, ROHF/cc-pVTZ-F12
 ---------------------------------
 Structure from the checkpoint file:  "THP.chk"
 Charge =  0 Multiplicity = 1

                         Standard orientation:
 ---------------------------------------------------------------------
 Center     Atomic      Atomic             Coordinates (Angstroms)
 Number     Number       Type             X           Y           Z
 ---------------------------------------------------------------------
      1          8           0       -0.655248   -1.267096    0.000000
      2          6           0        0.621190    1.326160   -0.000000
      3          1           0        1.692615    1.099949    0.000000
      4          1           0        0.531500    2.413921   -0.000000
      5          6           0       -0.021098    0.729452    1.256478
      6          6           0       -0.021098    0.729452   -1.256478
      7          6           0       -0.021098   -0.794439   -1.181380
      8          6           0       -0.021098   -0.794439    1.181380
      9          1           0        0.508516    1.050940    2.156482
     10          1           0        0.508516    1.050940   -2.156482
     11          1           0       -1.053457    1.077733    1.346035
     12          1           0       -1.053457    1.077733   -1.346035
     13          1           0        1.011856   -1.171214   -1.218431
     14          1           0        1.011856   -1.171214    1.218431
     15          1           0       -0.568378   -1.234568   -2.014054
     16          1           0       -0.568378   -1.234568    2.014054
 ---------------------------------------------------------------------

 SCF Done:  E(ROHF) =  -270.130287620     A.U. after   10 cycles

 The electronic state is 1-A'.
 Alpha  occ. eigenvalues --  -20.54508 -11.26718 -11.26716 -11.22112 -11.21809
 Alpha  occ. eigenvalues --  -11.21802  -1.36604  -1.07528  -1.02382  -0.87728
 Alpha  occ. eigenvalues --   -0.85853  -0.76890  -0.67398  -0.63539  -0.62635
 Alpha  occ. eigenvalues --   -0.61010  -0.57169  -0.54062  -0.53711  -0.49698
 Alpha  occ. eigenvalues --   -0.48122  -0.45766  -0.44487  -0.40315
 Alpha virt. eigenvalues --    0.04797   0.04951   0.05213   0.05548   0.06580
 Alpha virt. eigenvalues --    0.07929   0.08691   0.08772   0.09078   0.11274
 Alpha virt. eigenvalues --    0.11489   0.12052   0.12666   0.13156   0.13830

 Mulliken charges and spin densities:
               1          2
     1  O   -0.551410   0.000000
     2  C   -0.158035   0.000000
     3  H    0.078122   0.000000
     4  H    0.058658   0.000000
     5  C   -0.095898   0.000000
     6  C   -0.095898   0.000000
     7  C    0.040390   0.000000
     8  C    0.040390   0.000000
     9  H    0.064581   0.000000
    10  H    0.064581   0.000000
    11  H    0.077544   0.000000
    12  H    0.077544   0.000000
    13  H    0.084177   0.000000
    14  H    0.084177   0.000000
    15  H    0.115539   0.000000
    16  H    0.115539   0.000000
 Sum of Mulliken charges =  -0.00000   0.00000

 Dipole moment (field-independent basis, Debye):
    X=              1.1390    Y=              1.2058    Z=             -0.0000  Tot=              1.6587
 Quadrupole moment (field-independent basis, Debye-Ang):
   XX=            -39.3357   YY=            -40.8669   ZZ=            -35.6984
   XY=             -1.9710   XZ=              0.0000   YZ=              0.0000

 Normal termination of Gaussian 16 at Thu Sep 28 18:25:04 2023.
