 Gaussian 16, Revision B.01,
 Gaussian 16:  ES64L-G16RevB.01 20-Dec-2017

 --------------------
 # b3lyp/gen opt freq
 --------------------

 -----------------------------
 trimethylamine, B3LYP/pcseg-2
 -----------------------------
 Symbolic Z-matrix:
 Charge =  0 Multiplicity = 1

 SCF Done:  E(RB3LYP) =  -174.548160887     A.U. after   11 cycles
 SCF Done:  E(RB3LYP) =  -174.548277404     A.U. after    8 cycles
 Optimization completed.
    -- Stationary point found.
 Normal termination of Gaussian 16 at Wed Jun 15 16:38:06 2022.

 ------------------------------------------------------------------
 #N Geom=AllCheck Guess=TCheck SCRF=Check GenChk RB3LYP/ChkBas Freq
 ------------------------------------------------------------------

 Structure from the checkpoint file:  "/wrk/irikura/Gau-30395.chk"
 -----------------------------
 trimethylamine, B3LYP/pcseg-2
 -----------------------------
 Charge =  0 Multiplicity = 1

                         Standard orientation:
 ---------------------------------------------------------------------
 Center     Atomic      Atomic             Coordinates (Angstroms)
 Number     Number       Type             X           Y           Z
 ---------------------------------------------------------------------
      1          7           0        0.000000    0.000000    0.364774
      2          6           0        0.000000    1.388026   -0.059121
      3          6           0        1.202066   -0.694013   -0.059121
      4          6           0       -1.202066   -0.694013   -0.059121
      5          1           0        0.000000    1.501178   -1.158001
      6          1           0        1.300059   -0.750589   -1.158001
      7          1           0       -1.300059   -0.750589   -1.158001
      8          1           0       -0.882647    1.895805    0.330795
      9          1           0        0.882647    1.895805    0.330795
     10          1           0        2.083138   -0.183508    0.330795
     11          1           0        1.200492   -1.712297    0.330795
     12          1           0       -1.200492   -1.712297    0.330795
     13          1           0       -2.083138   -0.183508    0.330795
 ---------------------------------------------------------------------

 SCF Done:  E(RB3LYP) =  -174.548277404     A.U. after    1 cycles

 The electronic state is 1-A1.
 Alpha  occ. eigenvalues --  -14.30549 -10.18601 -10.18601 -10.18601  -0.92198
 Alpha  occ. eigenvalues --   -0.70620  -0.70620  -0.59230  -0.46932  -0.46932
 Alpha  occ. eigenvalues --   -0.46751  -0.39490  -0.39490  -0.37154  -0.36467
 Alpha  occ. eigenvalues --   -0.36467  -0.21784
 Alpha virt. eigenvalues --    0.01139   0.04780   0.04780   0.06523   0.07299
 Alpha virt. eigenvalues --    0.07299   0.08505   0.10958   0.10958   0.13404
 Alpha virt. eigenvalues --    0.16155   0.16155   0.16381   0.18361   0.18361

 Mulliken charges:
               1
     1  N   -0.310641
     2  C    0.050310
     3  C    0.050310
     4  C    0.050310
     5  H   -0.001092
     6  H   -0.001092
     7  H   -0.001092
     8  H    0.027164
     9  H    0.027164
    10  H    0.027164
    11  H    0.027164
    12  H    0.027164
    13  H    0.027164
 Sum of Mulliken charges =  -0.00000

 Dipole moment (field-independent basis, Debye):
    X=             -0.0000    Y=              0.0000    Z=             -0.4861  Tot=              0.4861
 Quadrupole moment (field-independent basis, Debye-Ang):
   XX=            -26.6824   YY=            -26.6824   ZZ=            -30.2486
   XY=             -0.0000   XZ=             -0.0000   YZ=             -0.0000

  Exact polarizability:  51.563   0.000  51.564   0.000   0.000  46.358
 Approx polarizability:  65.800  -0.000  65.800  -0.000  -0.000  66.424

                      1                      2                      3
                     A2                      E                      E
 Frequencies --    255.3117               265.5640               265.5640
 Red. masses --      1.0143                 1.0825                 1.0825
 Frc consts  --      0.0390                 0.0450                 0.0450
 IR Inten    --      0.0000                 0.6310                 0.6310

                      4                      5                      6
                     A1                      E                      E
 Frequencies --    349.7758               422.2538               422.2542
 Red. masses --      2.2800                 2.0535                 2.0535
 Frc consts  --      0.1643                 0.2157                 0.2157
 IR Inten    --      9.2623                 0.0012                 0.0012

                      7                      8                      9
                     A1                      E                      E
 Frequencies --    831.5097              1058.4978              1058.4980
 Red. masses --      3.9011                 2.0751                 2.0751
 Frc consts  --      1.5892                 1.3698                 1.3698
 IR Inten    --     24.2094                22.2697                22.2689

                     10                     11                     12
                     A2                      E                      E
 Frequencies --   1071.5609              1120.5385              1120.5386
 Red. masses --      1.2078                 1.2836                 1.2836
 Frc consts  --      0.8171                 0.9496                 0.9496
 IR Inten    --      0.0000                 7.9890                 7.9893

                     13                     14                     15
                     A1                      E                      E
 Frequencies --   1206.3383              1305.6251              1305.6259
 Red. masses --      1.5997                 2.5900                 2.5900
 Frc consts  --      1.3716                 2.6013                 2.6013
 IR Inten    --     24.3739                13.1793                13.1792

                     16                     17                     18
                      E                      E                      E
 Frequencies --   1443.2882              1443.2882              1481.4012
 Red. masses --      1.1602                 1.1602                 1.0420
 Frc consts  --      1.4240                 1.4240                 1.3472
 IR Inten    --      0.9595                 0.9593                 8.0909

                     19                     20                     21
                      E                     A1                     A2
 Frequencies --   1481.4013              1483.4956              1489.2554
 Red. masses --      1.0420                 1.1950                 1.0471
 Frc consts  --      1.3472                 1.5495                 1.3683
 IR Inten    --      8.0915                 0.1196                 0.0000

                     22                     23                     24
                     A1                      E                      E
 Frequencies --   1499.5591              1510.6765              1510.6766
 Red. masses --      1.0591                 1.0541                 1.0541
 Frc consts  --      1.4032                 1.4174                 1.4174
 IR Inten    --     24.3105                 9.2412                 9.2411

                     25                     26                     27
                      E                      E                     A1
 Frequencies --   2896.2884              2896.2884              2911.3580
 Red. masses --      1.0627                 1.0627                 1.0641
 Frc consts  --      5.2525                 5.2525                 5.3139
 IR Inten    --     51.9364                51.9379               214.1507

                     28                     29                     30
                      E                      E                     A1
 Frequencies --   3053.1079              3053.1079              3057.0649
 Red. masses --      1.0670                 1.0670                 1.0657
 Frc consts  --      5.8599                 5.8599                 5.8681
 IR Inten    --     34.5144                34.5172                34.8740

                     31                     32                     33
                     A2                      E                      E
 Frequencies --   3094.4494              3098.5455              3098.5455
 Red. masses --      1.1044                 1.1034                 1.1034
 Frc consts  --      6.2308                 6.2415                 6.2415
 IR Inten    --      0.0000                43.0682                43.0664

 - Thermochemistry -
 -------------------
 Temperature   298.150 Kelvin.  Pressure   1.00000 Atm.
 Atom     1 has atomic number  7 and mass  14.00307

 Molecular mass:    59.07350 amu.
 Principal axes and moments of inertia in atomic units:
                           1         2         3
     Eigenvalues --   207.03631 207.03631 366.44793
           X           -0.61328   0.78986   0.00000
           Y            0.78986   0.61328   0.00000
           Z            0.00000  -0.00000   1.00000
 This molecule is an oblate symmetric top.
 Rotational symmetry number  3.
 Rotational temperatures (Kelvin)      0.41835     0.41835     0.23636
 Rotational constants (GHZ):           8.71703     8.71703     4.92496
 Zero-point vibrational energy     314386.1 (Joules/Mol)
                                   75.14009 (Kcal/Mol)
 Warning -- explicit consideration of   6 degrees of freedom as
           vibrations may cause significant error
 Vibrational temperatures:    367.34   382.09   382.09   503.25   607.53
          (Kelvin)            607.53  1196.36  1522.94  1522.94  1541.74
                             1612.20  1612.21  1735.65  1878.50  1878.50
                             2076.57  2076.57  2131.41  2131.41  2134.42
                             2142.71  2157.53  2173.53  2173.53  4167.11
                             4167.11  4188.79  4392.74  4392.74  4398.43
                             4452.22  4458.12  4458.12

 Zero-point correction=                           0.119743 (Hartree/Particle)
 Thermal correction to Energy=                    0.125212
 Thermal correction to Enthalpy=                  0.126156
 Thermal correction to Gibbs Free Energy=         0.093450
 Sum of electronic and zero-point Energies=           -174.428534
 Sum of electronic and thermal Energies=              -174.423066
 Sum of electronic and thermal Enthalpies=            -174.422122
 Sum of electronic and thermal Free Energies=         -174.454828

                     E (Thermal)             CV                S
                      KCal/Mol        Cal/Mol-Kelvin    Cal/Mol-Kelvin
 Total                   78.571             18.885             68.835
 Electronic               0.000              0.000              0.000
 Translational            0.889              2.981             38.149
 Rotational               0.889              2.981             22.083
 Vibrational             76.794             12.924              8.603
 Vibration     1          0.666              1.754              1.694
 Vibration     2          0.671              1.736              1.625
 Vibration     3          0.671              1.736              1.625
 Vibration     4          0.727              1.576              1.167
 Vibration     5          0.785              1.422              0.884
 Vibration     6          0.785              1.422              0.884

                           ! Non-Optimized Parameters !
 Normal termination of Gaussian 16 at Wed Jun 15 16:39:27 2022.
