 Gaussian 16, Revision B.01,

 ---------------------------------------
 # b3lyp/gen opt freq CPHF(Grid=OneStep)
 ---------------------------------------

 --------------------------------
 tetramethylsilane, B3LYP/pcseg-2
 --------------------------------
 Symbolic Z-matrix:
 Charge =  0 Multiplicity = 1

 SCF Done:  E(RB3LYP) =  -449.303432165     A.U. after   11 cycles
 Optimization completed.
    -- Stationary point found.
 Normal termination of Gaussian 16 at Fri Sep 29 16:59:09 2023.

 ------------------------------------------------------------------
 #N Geom=AllCheck Guess=TCheck SCRF=Check GenChk RB3LYP/ChkBas Freq
 ------------------------------------------------------------------

 Structure from the checkpoint file:  "TMS.chk"
 --------------------------------
 tetramethylsilane, B3LYP/pcseg-2
 --------------------------------
 Charge =  0 Multiplicity = 1

 SCF Done:  E(RB3LYP) =  -449.303432165     A.U. after    1 cycles

  Exact polarizability:  76.284  -0.000  76.284   0.000  -0.000  76.284
 Approx polarizability: 102.649  -0.000 102.649   0.000  -0.000 102.649

                      1                      2                      3
                     A2                     T1                     T1
 Frequencies --    139.1612               166.9268               166.9268
 Red. masses --      1.0078                 1.0237                 1.0237
 Frc consts  --      0.0115                 0.0168                 0.0168
 IR Inten    --      0.0000                 0.0000                 0.0000

                      4                      5                      6
                     T1                      E                      E
 Frequencies --    166.9268               186.6632               186.6632
 Red. masses --      1.0237                 2.2854                 2.2854
 Frc consts  --      0.0168                 0.0469                 0.0469
 IR Inten    --      0.0000                 0.0000                 0.0000

                      7                      8                      9
                     T2                     T2                     T2
 Frequencies --    236.7796               236.7796               236.7796
 Red. masses --      2.3463                 2.3463                 2.3463
 Frc consts  --      0.0775                 0.0775                 0.0775
 IR Inten    --      3.9407                 3.9407                 3.9407

                     10                     11                     12
                     A1                     T1                     T1
 Frequencies --    578.2012               686.9780               686.9780
 Red. masses --      3.5908                 1.1680                 1.1680
 Frc consts  --      0.7073                 0.3248                 0.3248
 IR Inten    --      0.0000                 0.0000                 0.0000

                     13                     14                     15
                     T1                     T2                     T2
 Frequencies --    686.9780               689.3727               689.3727
 Red. masses --      1.1680                 2.9781                 2.9781
 Frc consts  --      0.3248                 0.8339                 0.8339
 IR Inten    --      0.0000                18.5445                18.5445

                     16                     17                     18
                     T2                      E                      E
 Frequencies --    689.3727               831.1237               831.1237
 Red. masses --      2.9781                 1.3115                 1.3115
 Frc consts  --      0.8339                 0.5338                 0.5338
 IR Inten    --     18.5445                 0.0000                 0.0000

                     19                     20                     21
                     T2                     T2                     T2
 Frequencies --    884.0175               884.0175               884.0175
 Red. masses --      1.7358                 1.7358                 1.7358
 Frc consts  --      0.7992                 0.7992                 0.7992
 IR Inten    --    118.8492               118.8492               118.8492

                     22                     23                     24
                     T2                     T2                     T2
 Frequencies --   1287.7559              1287.7559              1287.7559
 Red. masses --      1.2481                 1.2481                 1.2481
 Frc consts  --      1.2195                 1.2195                 1.2195
 IR Inten    --     34.8469                34.8469                34.8469

                     25                     26                     27
                     A1                     T1                     T1
 Frequencies --   1299.7654              1455.7909              1455.7909
 Red. masses --      1.2155                 1.0544                 1.0544
 Frc consts  --      1.2099                 1.3165                 1.3165
 IR Inten    --      0.0000                 0.0000                 0.0000

                     28                     29                     30
                     T1                      E                      E
 Frequencies --   1455.7909              1459.7273              1459.7273
 Red. masses --      1.0544                 1.0515                 1.0515
 Frc consts  --      1.3165                 1.3201                 1.3201
 IR Inten    --      0.0000                 0.0000                 0.0000

                     31                     32                     33
                     T2                     T2                     T2
 Frequencies --   1474.1550              1474.1550              1474.1550
 Red. masses --      1.0468                 1.0468                 1.0468
 Frc consts  --      1.3403                 1.3403                 1.3403
 IR Inten    --      7.8975                 7.8975                 7.8975

                     34                     35                     36
                     T2                     T2                     T2
 Frequencies --   3023.2243              3023.2243              3023.2243
 Red. masses --      1.0347                 1.0347                 1.0347
 Frc consts  --      5.5720                 5.5720                 5.5720
 IR Inten    --     11.1858                11.1858                11.1858

                     37                     38                     39
                     A1                      E                      E
 Frequencies --   3025.5236              3092.1283              3092.1283
 Red. masses --      1.0345                 1.1001                 1.1001
 Frc consts  --      5.5795                 6.1975                 6.1975
 IR Inten    --      0.0000                 0.0000                 0.0000

                     40                     41                     42
                     T1                     T1                     T1
 Frequencies --   3092.8864              3092.8864              3092.8864
 Red. masses --      1.1002                 1.1002                 1.1002
 Frc consts  --      6.2010                 6.2010                 6.2010
 IR Inten    --      0.0000                 0.0000                 0.0000

                     43                     44                     45
                     T2                     T2                     T2
 Frequencies --   3095.2273              3095.2273              3095.2273
 Red. masses --      1.0995                 1.0995                 1.0995
 Frc consts  --      6.2063                 6.2063                 6.2063
 IR Inten    --     40.8844                40.8844                40.8844

 - Thermochemistry -
 -------------------
 Temperature   298.150 Kelvin.  Pressure   1.00000 Atm.
 Atom     1 has atomic number 14 and mass  27.97693

 Molecular mass:    88.07083 amu.
 Principal axes and moments of inertia in atomic units:
                           1         2         3
     Eigenvalues --   585.90004 585.90004 585.90004
           X            0.99478   0.10203   0.00000
           Y           -0.10203   0.99478   0.00000
           Z            0.00000  -0.00000   1.00000
 This molecule is a spherical top.
 Rotational symmetry number 12.
 Warning -- assumption of classical behavior for rotation
           may cause significant error
 Rotational temperatures (Kelvin)      0.14783     0.14783     0.14783
 Rotational constants (GHZ):           3.08029     3.08029     3.08029
 Zero-point vibrational energy     385564.1 (Joules/Mol)
                                   92.15202 (Kcal/Mol)
 Warning -- explicit consideration of  10 degrees of freedom as
           vibrations may cause significant error
 Vibrational temperatures:    200.22   240.17   240.17   240.17   268.57
          (Kelvin)            268.57   340.67   340.67   340.67   831.90
                              988.41   988.41   988.41   991.85   991.85
                              991.85  1195.80  1195.80  1271.90  1271.90
                             1271.90  1852.79  1852.79  1852.79  1870.07
                             2094.56  2094.56  2094.56  2100.22  2100.22
                             2120.98  2120.98  2120.98  4349.75  4349.75
                             4349.75  4353.05  4448.88  4448.88  4449.97
                             4449.97  4449.97  4453.34  4453.34  4453.34

 Zero-point correction=                           0.146854 (Hartree/Particle)
 Thermal correction to Energy=                    0.156153
 Thermal correction to Enthalpy=                  0.157097
 Thermal correction to Gibbs Free Energy=         0.116770
 Sum of electronic and zero-point Energies=           -449.156579
 Sum of electronic and thermal Energies=              -449.147279
 Sum of electronic and thermal Enthalpies=            -449.146335
 Sum of electronic and thermal Free Energies=         -449.186662

                     E (Thermal)             CV                S
                      KCal/Mol        Cal/Mol-Kelvin    Cal/Mol-Kelvin
 Total                   97.988             32.847             84.876
 Electronic               0.000              0.000              0.000
 Translational            0.889              2.981             39.339
 Rotational               0.889              2.981             21.862
 Vibrational             96.210             26.885             23.675
 Vibration     1          0.615              1.914              2.815
 Vibration     2          0.624              1.883              2.470
 Vibration     3          0.624              1.883              2.470
 Vibration     4          0.624              1.883              2.470
 Vibration     5          0.632              1.858              2.261
 Vibration     6          0.632              1.858              2.261
 Vibration     7          0.656              1.784              1.827
 Vibration     8          0.656              1.784              1.827
 Vibration     9          0.656              1.784              1.827
 Vibration    10          0.935              1.078              0.489

                           ! Non-Optimized Parameters !
 Normal termination of Gaussian 16 at Fri Sep 29 17:08:06 2023.
 Gaussian 16:  ES64L-G16RevB.01 20-Dec-2017

 ---------------------------------
 # rohf/gen geom=check guess=check
 ---------------------------------

 -----------------------------------
 tetramethylsilane, ROHF/cc-pVTZ-F12
 -----------------------------------
 Structure from the checkpoint file:  "TMS.chk"
 Charge =  0 Multiplicity = 1

                         Standard orientation:
 ---------------------------------------------------------------------
 Center     Atomic      Atomic             Coordinates (Angstroms)
 Number     Number       Type             X           Y           Z
 ---------------------------------------------------------------------
      1         14           0        0.000000    0.000000    0.000000
      2          6           0        1.088705    1.088705    1.088705
      3          6           0       -1.088705   -1.088705    1.088705
      4          6           0       -1.088705    1.088705   -1.088705
      5          6           0        1.088705   -1.088705   -1.088705
      6          1           0        1.732163    0.485458    1.732163
      7          1           0        1.732163    1.732163    0.485458
      8          1           0        0.485458    1.732163    1.732163
      9          1           0       -1.732163   -1.732163    0.485458
     10          1           0       -0.485458   -1.732163    1.732163
     11          1           0       -1.732163   -0.485458    1.732163
     12          1           0       -1.732163    0.485458   -1.732163
     13          1           0       -1.732163    1.732163   -0.485458
     14          1           0       -0.485458    1.732163   -1.732163
     15          1           0        1.732163   -1.732163   -0.485458
     16          1           0        0.485458   -1.732163   -1.732163
     17          1           0        1.732163   -0.485458   -1.732163
 ---------------------------------------------------------------------

 SCF Done:  E(ROHF) =  -447.523375857     A.U. after    9 cycles

 The electronic state is 1-A1.
 Alpha  occ. eigenvalues --  -68.74270 -11.19133 -11.19133 -11.19133 -11.19132
 Alpha  occ. eigenvalues --   -6.09011  -4.19660  -4.19660  -4.19660  -0.97114
 Alpha  occ. eigenvalues --   -0.91879  -0.91879  -0.91879  -0.62023  -0.56479
 Alpha  occ. eigenvalues --   -0.56479  -0.56479  -0.54683  -0.54683  -0.52646
 Alpha  occ. eigenvalues --   -0.52646  -0.52646  -0.42256  -0.42256  -0.42256
 Alpha virt. eigenvalues --    0.03613   0.04029   0.04029   0.04029   0.08452
 Alpha virt. eigenvalues --    0.08452   0.08452   0.09238   0.09238   0.11560
 Alpha virt. eigenvalues --    0.11560   0.11560   0.12026   0.13377   0.13377

 Mulliken charges and spin densities:
               1          2
     1  Si   1.363690  -0.000000
     2  C   -0.572581  -0.000000
     3  C   -0.572581  -0.000000
     4  C   -0.572581  -0.000000
     5  C   -0.572581  -0.000000
     6  H    0.077219  -0.000000
     7  H    0.077219  -0.000000
     8  H    0.077219  -0.000000
     9  H    0.077219  -0.000000
    10  H    0.077219  -0.000000
    11  H    0.077219  -0.000000
    12  H    0.077219  -0.000000
    13  H    0.077219  -0.000000
    14  H    0.077219  -0.000000
    15  H    0.077219  -0.000000
    16  H    0.077219  -0.000000
    17  H    0.077219  -0.000000
 Sum of Mulliken charges =  -0.00000  -0.00000

 Dipole moment (field-independent basis, Debye):
    X=             -0.0000    Y=             -0.0000    Z=             -0.0000  Tot=              0.0000
 Quadrupole moment (field-independent basis, Debye-Ang):
   XX=            -42.9784   YY=            -42.9784   ZZ=            -42.9784
   XY=              0.0000   XZ=              0.0000   YZ=             -0.0000

 Normal termination of Gaussian 16 at Fri Sep 29 17:08:48 2023.
