 Gaussian 16, Revision B.01,
 Gaussian 16:  ES64L-G16RevB.01 20-Dec-2017

 --------------------
 # b3lyp/gen opt freq
 --------------------

 --------------------------------
 tetramethylsilane, B3LYP/pcseg-2
 --------------------------------
 Symbolic Z-matrix:
 Charge =  0 Multiplicity = 1

 SCF Done:  E(RB3LYP) =  -449.303201061     A.U. after   11 cycles
 SCF Done:  E(RB3LYP) =  -449.303432166     A.U. after    6 cycles
 Optimization completed.
    -- Stationary point found.
 Normal termination of Gaussian 16 at Fri Jun 17 17:35:34 2022.

 ------------------------------------------------------------------
 #N Geom=AllCheck Guess=TCheck SCRF=Check GenChk RB3LYP/ChkBas Freq
 ------------------------------------------------------------------

 Structure from the checkpoint file:  "/wrk/irikura/Gau-5932.chk"
 --------------------------------
 tetramethylsilane, B3LYP/pcseg-2
 --------------------------------
 Charge =  0 Multiplicity = 1

                         Standard orientation:
 ---------------------------------------------------------------------
 Center     Atomic      Atomic             Coordinates (Angstroms)
 Number     Number       Type             X           Y           Z
 ---------------------------------------------------------------------
      1         14           0        0.000000    0.000000    0.000000
      2          6           0        1.088705    1.088705    1.088705
      3          6           0       -1.088705   -1.088705    1.088705
      4          6           0       -1.088705    1.088705   -1.088705
      5          6           0        1.088705   -1.088705   -1.088705
      6          1           0        1.732163    0.485458    1.732163
      7          1           0        1.732163    1.732163    0.485458
      8          1           0        0.485458    1.732163    1.732163
      9          1           0       -1.732163   -1.732163    0.485458
     10          1           0       -0.485458   -1.732163    1.732163
     11          1           0       -1.732163   -0.485458    1.732163
     12          1           0       -1.732163    0.485458   -1.732163
     13          1           0       -1.732163    1.732163   -0.485458
     14          1           0       -0.485458    1.732163   -1.732163
     15          1           0        1.732163   -1.732163   -0.485458
     16          1           0        0.485458   -1.732163   -1.732163
     17          1           0        1.732163   -0.485458   -1.732163
 ---------------------------------------------------------------------

 SCF Done:  E(RB3LYP) =  -449.303432166     A.U. after    1 cycles

 The electronic state is 1-A1.
 Alpha  occ. eigenvalues --  -66.05992 -10.14252 -10.14252 -10.14252 -10.14251
 Alpha  occ. eigenvalues --   -5.24343  -3.60084  -3.60084  -3.60084  -0.72037
 Alpha  occ. eigenvalues --   -0.67721  -0.67721  -0.67721  -0.45778  -0.41463
 Alpha  occ. eigenvalues --   -0.41463  -0.41463  -0.39957  -0.39957  -0.38174
 Alpha  occ. eigenvalues --   -0.38174  -0.38174  -0.29837  -0.29837  -0.29837
 Alpha virt. eigenvalues --    0.00345   0.04260   0.04260   0.04260   0.06243
 Alpha virt. eigenvalues --    0.06243   0.06243   0.09838   0.09838   0.11344
 Alpha virt. eigenvalues --    0.11624   0.11624   0.11624   0.12093   0.12093

 Mulliken charges:
               1
     1  Si   0.713429
     2  C   -0.295461
     3  C   -0.295461
     4  C   -0.295461
     5  C   -0.295461
     6  H    0.039035
     7  H    0.039035
     8  H    0.039035
     9  H    0.039035
    10  H    0.039035
    11  H    0.039035
    12  H    0.039035
    13  H    0.039035
    14  H    0.039035
    15  H    0.039035
    16  H    0.039035
    17  H    0.039035
 Sum of Mulliken charges =  -0.00000

 Dipole moment (field-independent basis, Debye):
    X=              0.0000    Y=              0.0000    Z=             -0.0000  Tot=              0.0000
 Quadrupole moment (field-independent basis, Debye-Ang):
   XX=            -42.9652   YY=            -42.9652   ZZ=            -42.9652
   XY=              0.0000   XZ=              0.0000   YZ=             -0.0000

  Exact polarizability:  76.288  -0.000  76.288   0.000  -0.000  76.288
 Approx polarizability: 102.649   0.000 102.649   0.000  -0.000 102.649

                      1                      2                      3
                     A2                     T1                     T1
 Frequencies --    139.1634               166.9263               166.9263
 Red. masses --      1.0078                 1.0237                 1.0237
 Frc consts  --      0.0115                 0.0168                 0.0168
 IR Inten    --      0.0000                 0.0000                 0.0000

                      4                      5                      6
                     T1                      E                      E
 Frequencies --    166.9263               186.6628               186.6628
 Red. masses --      1.0237                 2.2854                 2.2854
 Frc consts  --      0.0168                 0.0469                 0.0469
 IR Inten    --      0.0000                 0.0000                 0.0000

                      7                      8                      9
                     T2                     T2                     T2
 Frequencies --    236.7812               236.7812               236.7812
 Red. masses --      2.3463                 2.3463                 2.3463
 Frc consts  --      0.0775                 0.0775                 0.0775
 IR Inten    --      3.9401                 3.9401                 3.9401

                     10                     11                     12
                     A1                     T1                     T1
 Frequencies --    578.2008               686.9320               686.9320
 Red. masses --      3.5908                 1.1680                 1.1680
 Frc consts  --      0.7073                 0.3247                 0.3247
 IR Inten    --      0.0000                 0.0000                 0.0000

                     13                     14                     15
                     T1                     T2                     T2
 Frequencies --    686.9320               689.3785               689.3785
 Red. masses --      1.1680                 2.9781                 2.9781
 Frc consts  --      0.3247                 0.8339                 0.8339
 IR Inten    --      0.0000                18.5376                18.5376

                     16                     17                     18
                     T2                      E                      E
 Frequencies --    689.3785               831.1227               831.1227
 Red. masses --      2.9781                 1.3115                 1.3115
 Frc consts  --      0.8339                 0.5338                 0.5338
 IR Inten    --     18.5376                 0.0000                 0.0000

                     19                     20                     21
                     T2                     T2                     T2
 Frequencies --    884.0146               884.0146               884.0146
 Red. masses --      1.7358                 1.7358                 1.7358
 Frc consts  --      0.7992                 0.7992                 0.7992
 IR Inten    --    118.8579               118.8579               118.8580

                     22                     23                     24
                     T2                     T2                     T2
 Frequencies --   1287.7482              1287.7482              1287.7482
 Red. masses --      1.2481                 1.2481                 1.2481
 Frc consts  --      1.2195                 1.2195                 1.2195
 IR Inten    --     34.8430                34.8430                34.8430

                     25                     26                     27
                     A1                     T1                     T1
 Frequencies --   1299.7645              1455.7817              1455.7817
 Red. masses --      1.2155                 1.0544                 1.0544
 Frc consts  --      1.2099                 1.3165                 1.3165
 IR Inten    --      0.0000                 0.0000                 0.0000

                     28                     29                     30
                     T1                      E                      E
 Frequencies --   1455.7817              1459.7318              1459.7318
 Red. masses --      1.0544                 1.0515                 1.0515
 Frc consts  --      1.3165                 1.3201                 1.3201
 IR Inten    --      0.0000                 0.0000                 0.0000

                     31                     32                     33
                     T2                     T2                     T2
 Frequencies --   1474.1498              1474.1498              1474.1498
 Red. masses --      1.0468                 1.0468                 1.0468
 Frc consts  --      1.3403                 1.3403                 1.3403
 IR Inten    --      7.8988                 7.8988                 7.8988

                     34                     35                     36
                     T2                     T2                     T2
 Frequencies --   3023.2141              3023.2141              3023.2141
 Red. masses --      1.0347                 1.0347                 1.0347
 Frc consts  --      5.5719                 5.5719                 5.5719
 IR Inten    --     11.1872                11.1872                11.1872

                     37                     38                     39
                     A1                      E                      E
 Frequencies --   3025.5212              3092.1344              3092.1344
 Red. masses --      1.0345                 1.1001                 1.1001
 Frc consts  --      5.5795                 6.1975                 6.1975
 IR Inten    --      0.0000                 0.0000                 0.0000

                     40                     41                     42
                     T1                     T1                     T1
 Frequencies --   3092.8881              3092.8881              3092.8881
 Red. masses --      1.1002                 1.1002                 1.1002
 Frc consts  --      6.2010                 6.2010                 6.2010
 IR Inten    --      0.0000                 0.0000                 0.0000

                     43                     44                     45
                     T2                     T2                     T2
 Frequencies --   3095.2291              3095.2291              3095.2291
 Red. masses --      1.0995                 1.0995                 1.0995
 Frc consts  --      6.2063                 6.2063                 6.2063
 IR Inten    --     40.8881                40.8881                40.8881

 - Thermochemistry -
 -------------------
 Temperature   298.150 Kelvin.  Pressure   1.00000 Atm.
 Atom     1 has atomic number 14 and mass  27.97693

 Molecular mass:    88.07083 amu.
 Principal axes and moments of inertia in atomic units:
                           1         2         3
     Eigenvalues --   585.89988 585.89988 585.89988
           X            0.00000  -0.00000   1.00000
           Y            0.00000   1.00000   0.00000
           Z            1.00000   0.00000   0.00000
 This molecule is a spherical top.
 Rotational symmetry number 12.
 Warning -- assumption of classical behavior for rotation
           may cause significant error
 Rotational temperatures (Kelvin)      0.14783     0.14783     0.14783
 Rotational constants (GHZ):           3.08029     3.08029     3.08029
 Zero-point vibrational energy     385562.9 (Joules/Mol)
                                   92.15175 (Kcal/Mol)
 Warning -- explicit consideration of  10 degrees of freedom as
           vibrations may cause significant error
 Vibrational temperatures:    200.23   240.17   240.17   240.17   268.57
          (Kelvin)            268.57   340.68   340.68   340.68   831.90
                              988.34   988.34   988.34   991.86   991.86
                              991.86  1195.80  1195.80  1271.90  1271.90
                             1271.90  1852.78  1852.78  1852.78  1870.07
                             2094.55  2094.55  2094.55  2100.23  2100.23
                             2120.97  2120.97  2120.97  4349.73  4349.73
                             4349.73  4353.05  4448.89  4448.89  4449.98
                             4449.98  4449.98  4453.34  4453.34  4453.34

 Zero-point correction=                           0.146853 (Hartree/Particle)
 Thermal correction to Energy=                    0.156153
 Thermal correction to Enthalpy=                  0.157097
 Thermal correction to Gibbs Free Energy=         0.116769
 Sum of electronic and zero-point Energies=           -449.156579
 Sum of electronic and thermal Energies=              -449.147280
 Sum of electronic and thermal Enthalpies=            -449.146335
 Sum of electronic and thermal Free Energies=         -449.186663

                     E (Thermal)             CV                S
                      KCal/Mol        Cal/Mol-Kelvin    Cal/Mol-Kelvin
 Total                   97.987             32.847             84.876
 Electronic               0.000              0.000              0.000
 Translational            0.889              2.981             39.339
 Rotational               0.889              2.981             21.862
 Vibrational             96.210             26.885             23.675
 Vibration     1          0.615              1.914              2.815
 Vibration     2          0.624              1.883              2.470
 Vibration     3          0.624              1.883              2.470
 Vibration     4          0.624              1.883              2.470
 Vibration     5          0.632              1.858              2.261
 Vibration     6          0.632              1.858              2.261
 Vibration     7          0.656              1.784              1.827
 Vibration     8          0.656              1.784              1.827
 Vibration     9          0.656              1.784              1.827
 Vibration    10          0.935              1.078              0.489

                           ! Non-Optimized Parameters !
 Normal termination of Gaussian 16 at Fri Jun 17 17:37:54 2022.
