 Gaussian 16, Revision B.01,

 ---------------------------------------
 # b3lyp/gen opt freq CPHF(Grid=OneStep)
 ---------------------------------------

 ----------------------
 toluene, B3LYP/pcseg-2
 ----------------------
 Symbolic Z-matrix:
 Charge =  0 Multiplicity = 1

 SCF Done:  E(RB3LYP) =  -271.671943941     A.U. after   12 cycles
 SCF Done:  E(RB3LYP) =  -271.671944621     A.U. after    6 cycles
 Optimization completed.
    -- Stationary point found.
 Normal termination of Gaussian 16 at Fri Sep 29 01:22:13 2023.

 ------------------------------------------------------------------
 #N Geom=AllCheck Guess=TCheck SCRF=Check GenChk RB3LYP/ChkBas Freq
 ------------------------------------------------------------------

 Structure from the checkpoint file:  "toluene.chk"
 ----------------------
 toluene, B3LYP/pcseg-2
 ----------------------
 Charge =  0 Multiplicity = 1

 SCF Done:  E(RB3LYP) =  -271.671944621     A.U. after    1 cycles

  Exact polarizability:  49.100  -0.657 100.980  -0.000  -0.000  87.487
 Approx polarizability:  75.761  -0.884 151.149  -0.000  -0.000 144.676

                      1                      2                      3
                     A"                     A'                     A"
 Frequencies --     30.8916               208.5489               344.8126
 Red. masses --      1.0348                 3.0044                 2.4995
 Frc consts  --      0.0006                 0.0770                 0.1751
 IR Inten    --      0.2259                 2.3076                 0.3362

                      4                      5                      6
                     A"                     A'                     A'
 Frequencies --    416.8808               477.9689               530.2057
 Red. masses --      2.8668                 2.6784                 5.0099
 Frc consts  --      0.2935                 0.3605                 0.8298
 IR Inten    --      0.0051                 9.4147                 0.5419

                      7                      8                      9
                     A"                     A'                     A'
 Frequencies --    639.2790               716.2230               748.1487
 Red. masses --      6.3639                 2.0337                 1.4662
 Frc consts  --      1.5323                 0.6147                 0.4835
 IR Inten    --      0.0839                28.3305                48.5791

                     10                     11                     12
                     A'                     A"                     A'
 Frequencies --    800.6459               861.0276               919.3464
 Red. masses --      4.5040                 1.2495                 1.3047
 Frc consts  --      1.7011                 0.5458                 0.6497
 IR Inten    --      0.8608                 0.0219                 0.6923

                     13                     14                     15
                     A"                     A"                     A'
 Frequencies --    993.2289              1002.1614              1011.7921
 Red. masses --      1.3779                 1.4391                 1.2980
 Frc consts  --      0.8009                 0.8516                 0.7829
 IR Inten    --      0.0001                 0.1591                 0.0371

                     16                     17                     18
                     A'                     A'                     A'
 Frequencies --   1022.2448              1053.2502              1066.1380
 Red. masses --      6.1562                 2.2261                 1.5649
 Frc consts  --      3.7903                 1.4550                 1.0480
 IR Inten    --      0.1008                 3.0067                 7.5304

                     19                     20                     21
                     A"                     A"                     A'
 Frequencies --   1113.1890              1182.8141              1205.5403
 Red. masses --      1.4715                 1.1189                 1.1493
 Frc consts  --      1.0743                 0.9223                 0.9841
 IR Inten    --      5.3843                 0.0557                 0.3855

                     22                     23                     24
                     A'                     A"                     A"
 Frequencies --   1230.2741              1326.8118              1362.5608
 Red. masses --      3.0381                 5.2680                 1.3740
 Frc consts  --      2.7093                 5.4640                 1.5030
 IR Inten    --      1.3147                 0.0601                 0.0088

                     25                     26                     27
                     A'                     A"                     A'
 Frequencies --   1415.1405              1472.0677              1489.6140
 Red. masses --      1.2442                 1.4716                 1.0500
 Frc consts  --      1.4681                 1.8789                 1.3727
 IR Inten    --      0.9141                 0.1708                 6.3820

                     28                     29                     30
                     A"                     A'                     A"
 Frequencies --   1503.9848              1533.1366              1624.1264
 Red. masses --      1.3699                 2.2245                 5.1887
 Frc consts  --      1.8257                 3.0806                 8.0640
 IR Inten    --     12.9154                13.6015                 0.2870

                     31                     32                     33
                     A'                     A'                     A'
 Frequencies --   1645.5791              3025.5105              3078.6570
 Red. masses --      5.5257                 1.0411                 1.0937
 Frc consts  --      8.8160                 5.6148                 6.1076
 IR Inten    --      8.7412                27.4950                17.5812

                     34                     35                     36
                     A"                     A'                     A"
 Frequencies --   3105.5640              3158.2027              3159.6754
 Red. masses --      1.1023                 1.0860                 1.0874
 Frc consts  --      6.2636                 6.3819                 6.3964
 IR Inten    --     15.2244                 8.5830                 5.5233

                     37                     38                     39
                     A'                     A"                     A'
 Frequencies --   3172.3624              3180.4729              3192.8300
 Red. masses --      1.0896                 1.0934                 1.0974
 Frc consts  --      6.4607                 6.5162                 6.5910
 IR Inten    --      6.4080                33.4852                13.3753

 - Thermochemistry -
 -------------------
 Temperature   298.150 Kelvin.  Pressure   1.00000 Atm.
 Atom     1 has atomic number  6 and mass  12.00000

 Molecular mass:    92.06260 amu.
 Principal axes and moments of inertia in atomic units:
                           1         2         3
     Eigenvalues --   323.45905 714.237961026.54794
           X           -0.00727   0.00000   0.99997
           Y            0.99997   0.00000   0.00727
           Z           -0.00000   1.00000  -0.00000
 This molecule is an asymmetric top.
 Rotational symmetry number  1.
 Rotational temperatures (Kelvin)      0.26777     0.12127     0.08437
 Rotational constants (GHZ):           5.57950     2.52681     1.75807
 Zero-point vibrational energy     335079.4 (Joules/Mol)
                                   80.08591 (Kcal/Mol)
 Warning -- explicit consideration of   6 degrees of freedom as
           vibrations may cause significant error
 Vibrational temperatures:     44.45   300.06   496.11   599.80   687.69
          (Kelvin)            762.85   919.78  1030.49  1076.42  1151.95
                             1238.83  1322.73  1429.03  1441.89  1455.74
                             1470.78  1515.39  1533.93  1601.63  1701.81
                             1734.50  1770.09  1908.99  1960.42  2036.07
                             2117.98  2143.22  2163.90  2205.84  2336.76
                             2367.62  4353.03  4429.50  4468.21  4543.95
                             4546.07  4564.32  4575.99  4593.77

 Zero-point correction=                           0.127625 (Hartree/Particle)
 Thermal correction to Energy=                    0.133842
 Thermal correction to Enthalpy=                  0.134786
 Thermal correction to Gibbs Free Energy=         0.096824
 Sum of electronic and zero-point Energies=           -271.544320
 Sum of electronic and thermal Energies=              -271.538103
 Sum of electronic and thermal Enthalpies=            -271.537159
 Sum of electronic and thermal Free Energies=         -271.575121

                     E (Thermal)             CV                S
                      KCal/Mol        Cal/Mol-Kelvin    Cal/Mol-Kelvin
 Total                   83.987             23.175             79.899
 Electronic               0.000              0.000              0.000
 Translational            0.889              2.981             39.471
 Rotational               0.889              2.981             26.964
 Vibrational             82.210             17.213             13.463
 Vibration     1          0.594              1.984              5.771
 Vibration     2          0.642              1.828              2.056
 Vibration     3          0.723              1.586              1.190
 Vibration     4          0.780              1.434              0.903
 Vibration     5          0.834              1.299              0.716
 Vibration     6          0.885              1.183              0.587

 Optimization completed.
    -- Stationary point found.
 Normal termination of Gaussian 16 at Fri Sep 29 01:42:02 2023.
 Gaussian 16:  ES64L-G16RevB.01 20-Dec-2017

 ---------------------------------
 # rohf/gen geom=check guess=check
 ---------------------------------

 -------------------------
 toluene, ROHF/cc-pVTZ-F12
 -------------------------
 Structure from the checkpoint file:  "toluene.chk"
 Charge =  0 Multiplicity = 1

                         Standard orientation:
 ---------------------------------------------------------------------
 Center     Atomic      Atomic             Coordinates (Angstroms)
 Number     Number       Type             X           Y           Z
 ---------------------------------------------------------------------
      1          6           0        0.004039    0.910773   -0.000000
      2          6           0        0.007200    0.193523    1.197461
      3          6           0        0.007200   -1.196639    1.200339
      4          6           0        0.006106   -1.897945    0.000000
      5          6           0        0.007200   -1.196639   -1.200339
      6          6           0        0.007200    0.193523   -1.197461
      7          6           0       -0.027466    2.417308   -0.000000
      8          1           0        0.012287    0.730133    2.138312
      9          1           0        0.011736   -1.731864    2.140772
     10          1           0        0.009027   -2.979595    0.000000
     11          1           0        0.011736   -1.731864   -2.140772
     12          1           0        0.012287    0.730133   -2.138312
     13          1           0       -1.055635    2.788127   -0.000000
     14          1           0        0.464847    2.825754    0.882400
     15          1           0        0.464847    2.825754   -0.882400
 ---------------------------------------------------------------------

 SCF Done:  E(ROHF) =  -269.845550956     A.U. after   11 cycles

 The electronic state is 1-A'.
 Alpha  occ. eigenvalues --  -11.23929 -11.23097 -11.23080 -11.22668 -11.22630
 Alpha  occ. eigenvalues --  -11.22620 -11.22210  -1.15293  -1.04426  -1.01152
 Alpha  occ. eigenvalues --   -0.93281  -0.82470  -0.79775  -0.69341  -0.63348
 Alpha  occ. eigenvalues --   -0.63092  -0.58324  -0.57601  -0.56702  -0.53961
 Alpha  occ. eigenvalues --   -0.48926  -0.48740  -0.48557  -0.33478  -0.32438
 Alpha virt. eigenvalues --    0.04622   0.05025   0.05316   0.06710   0.07001
 Alpha virt. eigenvalues --    0.07008   0.08883   0.09844   0.10095   0.10226
 Alpha virt. eigenvalues --    0.10337   0.10686   0.11211   0.12527   0.12618

 Mulliken charges and spin densities:
               1          2
     1  C    0.252959   0.000000
     2  C   -0.191805   0.000000
     3  C   -0.156933   0.000000
     4  C   -0.184770   0.000000
     5  C   -0.156933   0.000000
     6  C   -0.191805   0.000000
     7  C   -0.347237   0.000000
     8  H    0.129761   0.000000
     9  H    0.140109   0.000000
    10  H    0.139859   0.000000
    11  H    0.140109   0.000000
    12  H    0.129761   0.000000
    13  H    0.107846   0.000000
    14  H    0.094539   0.000000
    15  H    0.094539   0.000000
 Sum of Mulliken charges =  -0.00000   0.00000

 Dipole moment (field-independent basis, Debye):
    X=             -0.0333    Y=              0.4015    Z=              0.0000  Tot=              0.4028
 Quadrupole moment (field-independent basis, Debye-Ang):
   XX=            -47.0568   YY=            -38.6579   ZZ=            -38.9406
   XY=             -0.0703   XZ=              0.0000   YZ=              0.0000

 Normal termination of Gaussian 16 at Fri Sep 29 01:48:02 2023.
