 Gaussian 16, Revision B.01,
 Gaussian 16:  ES64L-G16RevB.01 20-Dec-2017

 --------------------
 # b3lyp/gen opt freq
 --------------------

 ----------------------
 toluene, B3LYP/pcseg-2
 ----------------------
 Symbolic Z-matrix:
 Charge =  0 Multiplicity = 1

 SCF Done:  E(RB3LYP) =  -271.671839793     A.U. after   12 cycles
 SCF Done:  E(RB3LYP) =  -271.671943941     A.U. after    8 cycles
 Optimization completed.
    -- Stationary point found.
 Normal termination of Gaussian 16 at Wed Jun 15 10:41:43 2022.

 ------------------------------------------------------------------
 #N Geom=AllCheck Guess=TCheck SCRF=Check GenChk RB3LYP/ChkBas Freq
 ------------------------------------------------------------------

 Structure from the checkpoint file:  "/wrk/irikura/Gau-3912.chk"
 ----------------------
 toluene, B3LYP/pcseg-2
 ----------------------
 Charge =  0 Multiplicity = 1

                         Standard orientation:
 ---------------------------------------------------------------------
 Center     Atomic      Atomic             Coordinates (Angstroms)
 Number     Number       Type             X           Y           Z
 ---------------------------------------------------------------------
      1          6           0        0.004010    0.910348    0.000000
      2          6           0        0.007038    0.193554    1.197313
      3          6           0        0.007038   -1.196329    1.200123
      4          6           0        0.005857   -1.897401   -0.000000
      5          6           0        0.007038   -1.196329   -1.200123
      6          6           0        0.007038    0.193554   -1.197313
      7          6           0       -0.026804    2.416563    0.000000
      8          1           0        0.012052    0.730423    2.137892
      9          1           0        0.011539   -1.731589    2.140428
     10          1           0        0.008695   -2.978953   -0.000000
     11          1           0        0.011539   -1.731589   -2.140428
     12          1           0        0.012052    0.730423   -2.137892
     13          1           0       -1.054724    2.788236    0.000000
     14          1           0        0.465777    2.824648    0.882465
     15          1           0        0.465777    2.824648   -0.882465
 ---------------------------------------------------------------------

 SCF Done:  E(RB3LYP) =  -271.671943941     A.U. after    1 cycles

 The electronic state is 1-A'.
 Alpha  occ. eigenvalues --  -10.18275 -10.17343 -10.17335 -10.17109 -10.17082
 Alpha  occ. eigenvalues --  -10.17080 -10.16915  -0.85973  -0.77437  -0.74670
 Alpha  occ. eigenvalues --   -0.68792  -0.60748  -0.58660  -0.51508  -0.46424
 Alpha  occ. eigenvalues --   -0.45614  -0.42453  -0.42262  -0.41181  -0.38893
 Alpha  occ. eigenvalues --   -0.36061  -0.34542  -0.34222  -0.25729  -0.24818
 Alpha virt. eigenvalues --   -0.01485  -0.01208   0.01619   0.03130   0.03984
 Alpha virt. eigenvalues --    0.06113   0.06886   0.07682   0.09351   0.10373
 Alpha virt. eigenvalues --    0.12651   0.14701   0.14964   0.16018   0.16902

 Mulliken charges:
               1
     1  C    0.268266
     2  C   -0.146170
     3  C    0.000078
     4  C   -0.032841
     5  C    0.000078
     6  C   -0.146170
     7  C   -0.110721
     8  H    0.000102
     9  H    0.017834
    10  H    0.017788
    11  H    0.017834
    12  H    0.000102
    13  H    0.049605
    14  H    0.032108
    15  H    0.032108
 Sum of Mulliken charges =  -0.00000

 Dipole moment (field-independent basis, Debye):
    X=             -0.0373    Y=              0.3919    Z=             -0.0000  Tot=              0.3937
 Quadrupole moment (field-independent basis, Debye-Ang):
   XX=            -46.2430   YY=            -38.8819   ZZ=            -39.2317
   XY=             -0.0803   XZ=              0.0000   YZ=             -0.0000

  Exact polarizability:  49.090  -0.652 100.938  -0.000  -0.000  87.456
 Approx polarizability:  75.747  -0.881 151.056  -0.000   0.000 144.611

                      1                      2                      3
                     A"                     A'                     A"
 Frequencies --     35.7146               208.0329               344.9126
 Red. masses --      1.0348                 3.0045                 2.5000
 Frc consts  --      0.0008                 0.0766                 0.1752
 IR Inten    --      0.2267                 2.3065                 0.3355

                      4                      5                      6
                     A"                     A'                     A'
 Frequencies --    416.3804               477.5244               530.3604
 Red. masses --      2.8662                 2.6772                 5.0117
 Frc consts  --      0.2928                 0.3597                 0.8306
 IR Inten    --      0.0053                 9.4410                 0.5380

                      7                      8                      9
                     A"                     A'                     A'
 Frequencies --    639.3588               715.9800               747.8156
 Red. masses --      6.3613                 2.0245                 1.4710
 Frc consts  --      1.5321                 0.6115                 0.4847
 IR Inten    --      0.0843                28.6170                48.2443

                     10                     11                     12
                     A'                     A"                     A'
 Frequencies --    801.1177               860.7206               919.0793
 Red. masses --      4.5002                 1.2495                 1.3050
 Frc consts  --      1.7017                 0.5454                 0.6495
 IR Inten    --      0.8548                 0.0215                 0.6939

                     13                     14                     15
                     A"                     A"                     A'
 Frequencies --    993.0486              1002.6578              1011.6657
 Red. masses --      1.3779                 1.4384                 1.2978
 Frc consts  --      0.8006                 0.8520                 0.7826
 IR Inten    --      0.0000                 0.1602                 0.0369

                     16                     17                     18
                     A'                     A'                     A'
 Frequencies --   1022.6447              1053.7210              1066.3035
 Red. masses --      6.1621                 2.2215                 1.5647
 Frc consts  --      3.7969                 1.4533                 1.0482
 IR Inten    --      0.0977                 3.0114                 7.5157

                     19                     20                     21
                     A"                     A"                     A'
 Frequencies --   1113.4916              1183.0253              1205.6731
 Red. masses --      1.4694                 1.1170                 1.1475
 Frc consts  --      1.0734                 0.9210                 0.9828
 IR Inten    --      5.4045                 0.0554                 0.3891

                     22                     23                     24
                     A'                     A"                     A"
 Frequencies --   1230.9447              1328.3233              1362.6979
 Red. masses --      3.0409                 5.2502                 1.3776
 Frc consts  --      2.7147                 5.4580                 1.5072
 IR Inten    --      1.2911                 0.0611                 0.0085

                     25                     26                     27
                     A'                     A"                     A'
 Frequencies --   1415.4192              1472.3745              1489.6569
 Red. masses --      1.2448                 1.4656                 1.0500
 Frc consts  --      1.4693                 1.8720                 1.3728
 IR Inten    --      0.9215                 0.1900                 6.3788

                     28                     29                     30
                     A"                     A'                     A"
 Frequencies --   1504.2846              1533.6450              1625.2994
 Red. masses --      1.3768                 2.2301                 5.2117
 Frc consts  --      1.8357                 3.0905                 8.1113
 IR Inten    --     12.9080                13.6119                 0.2857

                     31                     32                     33
                     A'                     A'                     A'
 Frequencies --   1646.6172              3025.0713              3078.1685
 Red. masses --      5.5427                 1.0412                 1.0936
 Frc consts  --      8.8543                 5.6135                 6.1053
 IR Inten    --      8.7489                27.5373                17.6114

                     34                     35                     36
                     A"                     A'                     A"
 Frequencies --   3105.1693              3159.1179              3160.6204
 Red. masses --      1.1023                 1.0859                 1.0874
 Frc consts  --      6.2620                 6.3854                 6.4002
 IR Inten    --     15.2650                 8.5404                 5.4209

                     37                     38                     39
                     A'                     A"                     A'
 Frequencies --   3173.2468              3181.3280              3193.6914
 Red. masses --      1.0896                 1.0934                 1.0974
 Frc consts  --      6.4644                 6.5199                 6.5946
 IR Inten    --      6.4940                33.5813                13.3742

 - Thermochemistry -
 -------------------
 Temperature   298.150 Kelvin.  Pressure   1.00000 Atm.
 Atom     1 has atomic number  6 and mass  12.00000

 Molecular mass:    92.06260 amu.
 Principal axes and moments of inertia in atomic units:
                           1         2         3
     Eigenvalues --   323.36064 713.836251026.04980
           X           -0.00709   0.00000   0.99997
           Y            0.99997   0.00000   0.00709
           Z            0.00000   1.00000  -0.00000
 This molecule is an asymmetric top.
 Rotational symmetry number  1.
 Rotational temperatures (Kelvin)      0.26786     0.12134     0.08441
 Rotational constants (GHZ):           5.58120     2.52823     1.75892
 Zero-point vibrational energy     335163.2 (Joules/Mol)
                                   80.10592 (Kcal/Mol)
 Warning -- explicit consideration of   6 degrees of freedom as
           vibrations may cause significant error
 Vibrational temperatures:     51.39   299.31   496.25   599.08   687.05
          (Kelvin)            763.07   919.89  1030.14  1075.94  1152.63
                             1238.39  1322.35  1428.78  1442.60  1455.56
                             1471.36  1516.07  1534.17  1602.07  1702.11
                             1734.69  1771.05  1911.16  1960.62  2036.47
                             2118.42  2143.28  2164.33  2206.57  2338.44
                             2369.11  4352.40  4428.80  4467.65  4545.27
                             4547.43  4565.59  4577.22  4595.01

 Zero-point correction=                           0.127657 (Hartree/Particle)
 Thermal correction to Energy=                    0.133864
 Thermal correction to Enthalpy=                  0.134809
 Thermal correction to Gibbs Free Energy=         0.096981
 Sum of electronic and zero-point Energies=           -271.544287
 Sum of electronic and thermal Energies=              -271.538079
 Sum of electronic and thermal Enthalpies=            -271.537135
 Sum of electronic and thermal Free Energies=         -271.574963

                     E (Thermal)             CV                S
                      KCal/Mol        Cal/Mol-Kelvin    Cal/Mol-Kelvin
 Total                   84.001             23.173             79.616
 Electronic               0.000              0.000              0.000
 Translational            0.889              2.981             39.471
 Rotational               0.889              2.981             26.962
 Vibrational             82.224             17.212             13.182
 Vibration     1          0.594              1.982              5.484
 Vibration     2          0.641              1.828              2.061
 Vibration     3          0.723              1.586              1.189
 Vibration     4          0.780              1.435              0.904
 Vibration     5          0.834              1.300              0.717
 Vibration     6          0.885              1.183              0.586

 Optimization completed.
    -- Stationary point found.
 Normal termination of Gaussian 16 at Wed Jun 15 10:46:50 2022.
