 Gaussian 16, Revision B.01,
 Gaussian 16:  ES64L-G16RevB.01 20-Dec-2017

 --------------------
 # b3lyp/gen opt freq
 --------------------

 -------------------
 urea, B3LYP/pcseg-2
 -------------------
 Symbolic Z-matrix:
 Charge =  0 Multiplicity = 1

 SCF Done:  E(RB3LYP) =  -225.374833658     A.U. after   12 cycles
 SCF Done:  E(RB3LYP) =  -225.374958584     A.U. after    9 cycles
 SCF Done:  E(RB3LYP) =  -225.375031826     A.U. after   10 cycles
 SCF Done:  E(RB3LYP) =  -225.375043200     A.U. after    8 cycles
 SCF Done:  E(RB3LYP) =  -225.375045297     A.U. after    8 cycles
 Optimization completed.
    -- Stationary point found.
 Normal termination of Gaussian 16 at Wed Jun 15 21:10:47 2022.

 ------------------------------------------------------------------
 #N Geom=AllCheck Guess=TCheck SCRF=Check GenChk RB3LYP/ChkBas Freq
 ------------------------------------------------------------------

 Structure from the checkpoint file:  "/wrk/irikura/Gau-26768.chk"
 -------------------
 urea, B3LYP/pcseg-2
 -------------------
 Charge =  0 Multiplicity = 1

                         Standard orientation:
 ---------------------------------------------------------------------
 Center     Atomic      Atomic             Coordinates (Angstroms)
 Number     Number       Type             X           Y           Z
 ---------------------------------------------------------------------
      1          6           0        0.000000    0.000000    0.142666
      2          8           0        0.000000    0.000000    1.357562
      3          7           0        0.000000    1.160693   -0.607398
      4          7           0       -0.000000   -1.160693   -0.607398
      5          1           0        0.190314    1.991512   -0.073640
      6          1           0        0.393465    1.143288   -1.532820
      7          1           0       -0.190314   -1.991512   -0.073640
      8          1           0       -0.393465   -1.143288   -1.532820
 ---------------------------------------------------------------------

 SCF Done:  E(RB3LYP) =  -225.375045297     A.U. after    1 cycles

 The electronic state is 1-A.
 Alpha  occ. eigenvalues --  -19.08404 -14.33648 -14.33648 -10.30234  -1.05156
 Alpha  occ. eigenvalues --   -0.92770  -0.88850  -0.62093  -0.55862  -0.54565
 Alpha  occ. eigenvalues --   -0.47735  -0.43476  -0.42257  -0.29014  -0.28826
 Alpha  occ. eigenvalues --   -0.26909
 Alpha virt. eigenvalues --   -0.00651   0.02348   0.04970   0.05161   0.07659
 Alpha virt. eigenvalues --    0.14636   0.17007   0.17373   0.20766   0.21743
 Alpha virt. eigenvalues --    0.26946   0.28250   0.28522   0.30430   0.30548

 Mulliken charges:
               1
     1  C    0.518868
     2  O   -0.486376
     3  N   -0.303275
     4  N   -0.303275
     5  H    0.159120
     6  H    0.127909
     7  H    0.159120
     8  H    0.127909
 Sum of Mulliken charges =  -0.00000

 Dipole moment (field-independent basis, Debye):
    X=             -0.0000    Y=             -0.0000    Z=             -3.9192  Tot=              3.9192
 Quadrupole moment (field-independent basis, Debye-Ang):
   XX=            -25.4729   YY=            -17.9372   ZZ=            -25.5707
   XY=              2.9680   XZ=              0.0000   YZ=              0.0000

  Exact polarizability:  23.428   0.744  37.152   0.000  -0.000  38.428
 Approx polarizability:  31.952   0.204  47.347   0.000   0.000  58.362

                      1                      2                      3
                      A                      B                      A
 Frequencies --    363.9015               432.6504               476.0291
 Red. masses --      1.0477                 1.2274                 2.1810
 Frc consts  --      0.0817                 0.1354                 0.2912
 IR Inten    --     68.9479               228.5016                 1.5037

                      4                      5                      6
                      A                      B                      B
 Frequencies --    527.2107               534.9820               578.8325
 Red. masses --      1.3242                 1.2180                 2.7702
 Frc consts  --      0.2169                 0.2054                 0.5469
 IR Inten    --     52.4322               128.6608                55.5022

                      7                      8                      9
                      B                      A                      B
 Frequencies --    778.9658               952.3512              1038.6380
 Red. masses --      7.3441                 3.9778                 1.4670
 Frc consts  --      2.6256                 2.1256                 0.9324
 IR Inten    --     46.8458                10.0879                28.3893

                     10                     11                     12
                      A                      B                      B
 Frequencies --   1174.4659              1408.4082              1629.8603
 Red. masses --      1.6143                 3.3696                 1.2260
 Frc consts  --      1.3119                 3.9381                 1.9189
 IR Inten    --      3.9025               227.4317               187.6093

                     13                     14                     15
                      A                      A                      B
 Frequencies --   1630.8202              1781.1565              3575.9806
 Red. masses --      1.1783                 6.6565                 1.0458
 Frc consts  --      1.8464                12.4424                 7.8796
 IR Inten    --      0.0781               462.6274                49.7783

                     16                     17                     18
                      A                      B                      A
 Frequencies --   3582.0522              3693.7175              3694.3761
 Red. masses --      1.0469                 1.1015                 1.1017
 Frc consts  --      7.9147                 8.8541                 8.8593
 IR Inten    --      4.0270                34.4235                39.5665

 - Thermochemistry -
 -------------------
 Temperature   298.150 Kelvin.  Pressure   1.00000 Atm.
 Atom     1 has atomic number  6 and mass  12.00000

 Molecular mass:    60.03236 amu.
 Principal axes and moments of inertia in atomic units:
                           1         2         3
     Eigenvalues --   160.55652 174.06843 332.28985
           X            0.03476  -0.00000   0.99940
           Y            0.99940  -0.00000  -0.03476
           Z            0.00000   1.00000  -0.00000
 This molecule is an asymmetric top.
 Rotational symmetry number  2.
 Rotational temperatures (Kelvin)      0.53946     0.49759     0.26066
 Rotational constants (GHZ):          11.24054    10.36800     5.43123
 Zero-point vibrational energy     166606.3 (Joules/Mol)
                                   39.81986 (Kcal/Mol)
 Warning -- explicit consideration of   6 degrees of freedom as
           vibrations may cause significant error
 Vibrational temperatures:    523.57   622.49   684.90   758.54   769.72
          (Kelvin)            832.81  1120.76  1370.22  1494.37  1689.79
                             2026.39  2345.01  2346.39  2562.69  5145.04
                             5153.77  5314.44  5315.38

 Zero-point correction=                           0.063457 (Hartree/Particle)
 Thermal correction to Energy=                    0.067927
 Thermal correction to Enthalpy=                  0.068871
 Thermal correction to Gibbs Free Energy=         0.037799
 Sum of electronic and zero-point Energies=           -225.311588
 Sum of electronic and thermal Energies=              -225.307118
 Sum of electronic and thermal Enthalpies=            -225.306174
 Sum of electronic and thermal Free Energies=         -225.337246

                     E (Thermal)             CV                S
                      KCal/Mol        Cal/Mol-Kelvin    Cal/Mol-Kelvin
 Total                   42.625             15.552             65.396
 Electronic               0.000              0.000              0.000
 Translational            0.889              2.981             38.197
 Rotational               0.889              2.981             22.367
 Vibrational             40.847              9.590              4.832
 Vibration     1          0.737              1.547              1.105
 Vibration     2          0.794              1.399              0.850
 Vibration     3          0.833              1.303              0.721
 Vibration     4          0.882              1.190              0.593
 Vibration     5          0.890              1.173              0.576
 Vibration     6          0.935              1.077              0.488

 Optimization completed.
    -- Stationary point found.
 Normal termination of Gaussian 16 at Wed Jun 15 21:11:27 2022.
