 Gaussian 16, Revision B.01,

 ---------------------------------------
 # b3lyp/gen opt freq CPHF(Grid=OneStep)
 ---------------------------------------

 -------------------
 urea, B3LYP/pcseg-2
 -------------------
 Symbolic Z-matrix:
 Charge =  0 Multiplicity = 1

 SCF Done:  E(RB3LYP) =  -225.375045297     A.U. after   12 cycles
 Optimization completed.
    -- Stationary point found.
 Normal termination of Gaussian 16 at Fri Sep 29 07:12:40 2023.

 ------------------------------------------------------------------
 #N Geom=AllCheck Guess=TCheck SCRF=Check GenChk RB3LYP/ChkBas Freq
 ------------------------------------------------------------------

 Structure from the checkpoint file:  "urea.chk"
 -------------------
 urea, B3LYP/pcseg-2
 -------------------
 Charge =  0 Multiplicity = 1

 SCF Done:  E(RB3LYP) =  -225.375045297     A.U. after    1 cycles

  Exact polarizability:  23.428   0.744  37.152   0.000  -0.000  38.429
 Approx polarizability:  31.952   0.204  47.347  -0.000  -0.000  58.362

                      1                      2                      3
                      A                      B                      A
 Frequencies --    363.8874               432.6398               476.0271
 Red. masses --      1.0477                 1.2274                 2.1810
 Frc consts  --      0.0817                 0.1354                 0.2912
 IR Inten    --     68.9495               228.4883                 1.5020

                      4                      5                      6
                      A                      B                      B
 Frequencies --    527.2059               534.9724               578.8279
 Red. masses --      1.3242                 1.2180                 2.7703
 Frc consts  --      0.2169                 0.2054                 0.5469
 IR Inten    --     52.4344               128.6790                55.5007

                      7                      8                      9
                      B                      A                      B
 Frequencies --    778.9648               952.3506              1038.6321
 Red. masses --      7.3442                 3.9777                 1.4670
 Frc consts  --      2.6256                 2.1256                 0.9324
 IR Inten    --     46.8438                10.0884                28.3863

                     10                     11                     12
                      A                      B                      B
 Frequencies --   1174.4624              1408.4041              1629.8564
 Red. masses --      1.6143                 3.3695                 1.2260
 Frc consts  --      1.3119                 3.9380                 1.9189
 IR Inten    --      3.9016               227.4167               187.6291

                     13                     14                     15
                      A                      A                      B
 Frequencies --   1630.8165              1781.1422              3575.9812
 Red. masses --      1.1783                 6.6560                 1.0458
 Frc consts  --      1.8464                12.4411                 7.8796
 IR Inten    --      0.0783               462.6369                49.7843

                     16                     17                     18
                      A                      B                      A
 Frequencies --   3582.0547              3693.7146              3694.3762
 Red. masses --      1.0469                 1.1015                 1.1017
 Frc consts  --      7.9147                 8.8541                 8.8593
 IR Inten    --      4.0286                34.4241                39.5580

 - Thermochemistry -
 -------------------
 Temperature   298.150 Kelvin.  Pressure   1.00000 Atm.
 Atom     1 has atomic number  6 and mass  12.00000

 Molecular mass:    60.03236 amu.
 Principal axes and moments of inertia in atomic units:
                           1         2         3
     Eigenvalues --   160.55655 174.06853 332.28998
           X            0.03476   0.00000   0.99940
           Y            0.99940   0.00000  -0.03476
           Z           -0.00000   1.00000  -0.00000
 This molecule is an asymmetric top.
 Rotational symmetry number  2.
 Rotational temperatures (Kelvin)      0.53946     0.49759     0.26066
 Rotational constants (GHZ):          11.24053    10.36799     5.43122
 Zero-point vibrational energy     166605.8 (Joules/Mol)
                                   39.81974 (Kcal/Mol)
 Warning -- explicit consideration of   6 degrees of freedom as
           vibrations may cause significant error
 Vibrational temperatures:    523.55   622.47   684.90   758.53   769.71
          (Kelvin)            832.80  1120.76  1370.22  1494.36  1689.79
                             2026.38  2345.00  2346.38  2562.67  5145.04
                             5153.78  5314.43  5315.38

 Zero-point correction=                           0.063457 (Hartree/Particle)
 Thermal correction to Energy=                    0.067927
 Thermal correction to Enthalpy=                  0.068871
 Thermal correction to Gibbs Free Energy=         0.037799
 Sum of electronic and zero-point Energies=           -225.311588
 Sum of electronic and thermal Energies=              -225.307119
 Sum of electronic and thermal Enthalpies=            -225.306174
 Sum of electronic and thermal Free Energies=         -225.337246

                     E (Thermal)             CV                S
                      KCal/Mol        Cal/Mol-Kelvin    Cal/Mol-Kelvin
 Total                   42.625             15.552             65.396
 Electronic               0.000              0.000              0.000
 Translational            0.889              2.981             38.197
 Rotational               0.889              2.981             22.367
 Vibrational             40.847              9.590              4.832
 Vibration     1          0.737              1.547              1.105
 Vibration     2          0.794              1.399              0.850
 Vibration     3          0.833              1.303              0.721
 Vibration     4          0.882              1.190              0.593
 Vibration     5          0.890              1.173              0.576
 Vibration     6          0.935              1.077              0.488

 Optimization completed.
    -- Stationary point found.
 Normal termination of Gaussian 16 at Fri Sep 29 07:15:00 2023.
 Gaussian 16:  ES64L-G16RevB.01 20-Dec-2017

 ---------------------------------
 # rohf/gen geom=check guess=check
 ---------------------------------

 ----------------------
 urea, ROHF/cc-pVTZ-F12
 ----------------------
 Structure from the checkpoint file:  "urea.chk"
 Charge =  0 Multiplicity = 1

                         Standard orientation:
 ---------------------------------------------------------------------
 Center     Atomic      Atomic             Coordinates (Angstroms)
 Number     Number       Type             X           Y           Z
 ---------------------------------------------------------------------
      1          6           0        0.000000   -0.000000    0.142666
      2          8           0        0.000000   -0.000000    1.357562
      3          7           0       -0.000000    1.160693   -0.607398
      4          7           0       -0.000000   -1.160693   -0.607398
      5          1           0        0.190314    1.991512   -0.073640
      6          1           0        0.393465    1.143288   -1.532820
      7          1           0       -0.190314   -1.991512   -0.073640
      8          1           0       -0.393465   -1.143288   -1.532820
 ---------------------------------------------------------------------

 SCF Done:  E(ROHF) =  -224.097567671     A.U. after   12 cycles

 The electronic state is 1-A.
 Alpha  occ. eigenvalues --  -20.51193 -15.58220 -15.58217 -11.37915  -1.39376
 Alpha  occ. eigenvalues --   -1.23407  -1.18061  -0.82690  -0.74102  -0.72819
 Alpha  occ. eigenvalues --   -0.64090  -0.61073  -0.60230  -0.44705  -0.43780
 Alpha  occ. eigenvalues --   -0.42117
 Alpha virt. eigenvalues --    0.04066   0.05597   0.07435   0.07955   0.10827
 Alpha virt. eigenvalues --    0.11023   0.13260   0.13548   0.14293   0.14806
 Alpha virt. eigenvalues --    0.19593   0.19939   0.22153   0.22351   0.23032

 Mulliken charges and spin densities:
               1          2
     1  C    0.994633  -0.000000
     2  O   -0.680833  -0.000000
     3  N   -0.714739  -0.000000
     4  N   -0.714739  -0.000000
     5  H    0.295381  -0.000000
     6  H    0.262458   0.000000
     7  H    0.295381  -0.000000
     8  H    0.262458   0.000000
 Sum of Mulliken charges =  -0.00000  -0.00000

 Dipole moment (field-independent basis, Debye):
    X=             -0.0000    Y=             -0.0000    Z=             -4.1466  Tot=              4.1466
 Quadrupole moment (field-independent basis, Debye-Ang):
   XX=            -25.3474   YY=            -17.6508   ZZ=            -25.6028
   XY=              3.0808   XZ=              0.0000   YZ=              0.0000

 Normal termination of Gaussian 16 at Fri Sep 29 07:15:47 2023.
